
Lmod is automatically replacing "intel/2020.1.217" with "gcc/10.3.0".


Due to MODULEPATH changes, the following have been reloaded:
  1) blis/0.8.1     2) flexiblas/3.0.4

The following have been reloaded with a version change:
  1) gcccore/.9.3.0 => gcccore/.10.3.0        3) openmpi/4.0.3 => openmpi/4.1.1
  2) libfabric/1.10.1 => libfabric/1.12.1     4) ucx/1.8.0 => ucx/1.9.0

To execute ORCA, run: 
   ${EBROOTORCA}/orca orca.inp > orca.out

                                 *****************
                                 * O   R   C   A *
                                 *****************

                                            #,                                       
                                            ###                                      
                                            ####                                     
                                            #####                                    
                                            ######                                   
                                           ########,                                 
                                     ,,################,,,,,                         
                               ,,#################################,,                 
                          ,,##########################################,,             
                       ,#########################################, ''#####,          
                    ,#############################################,,   '####,        
                  ,##################################################,,,,####,       
                ,###########''''           ''''###############################       
              ,#####''   ,,,,##########,,,,          '''####'''          '####       
            ,##' ,,,,###########################,,,                        '##       
           ' ,,###''''                  '''############,,,                           
         ,,##''                                '''############,,,,        ,,,,,,###''
      ,#''                                            '''#######################'''  
     '                                                          ''''####''''         
             ,#######,   #######,   ,#######,      ##                                
            ,#'     '#,  ##    ##  ,#'     '#,    #''#        ######   ,####,        
            ##       ##  ##   ,#'  ##            #'  '#       #        #'  '#        
            ##       ##  #######   ##           ,######,      #####,   #    #        
            '#,     ,#'  ##    ##  '#,     ,#' ,#      #,         ##   #,  ,#        
             '#######'   ##     ##  '#######'  #'      '#     #####' # '####'        



                  #######################################################
                  #                        -***-                        #
                  #          Department of theory and spectroscopy      #
                  #    Directorship and core code : Frank Neese         #
                  #        Max Planck Institute fuer Kohlenforschung    #
                  #                Kaiser Wilhelm Platz 1               #
                  #                 D-45470 Muelheim/Ruhr               #
                  #                      Germany                        #
                  #                                                     #
                  #                  All rights reserved                #
                  #                        -***-                        #
                  #######################################################


                         Program Version 5.0.3 -  RELEASE  -


 With contributions from (in alphabetic order):
   Daniel Aravena         : Magnetic Suceptibility
   Michael Atanasov       : Ab Initio Ligand Field Theory (pilot matlab implementation)
   Alexander A. Auer      : GIAO ZORA, VPT2 properties, NMR spectrum
   Ute Becker             : Parallelization
   Giovanni Bistoni       : ED, misc. LED, open-shell LED, HFLD
   Martin Brehm           : Molecular dynamics
   Dmytro Bykov           : SCF Hessian
   Vijay G. Chilkuri      : MRCI spin determinant printing, contributions to CSF-ICE
   Dipayan Datta          : RHF DLPNO-CCSD density
   Achintya Kumar Dutta   : EOM-CC, STEOM-CC
   Dmitry Ganyushin       : Spin-Orbit,Spin-Spin,Magnetic field MRCI
   Miquel Garcia          : C-PCM and meta-GGA Hessian, CC/C-PCM, Gaussian charge scheme
   Yang Guo               : DLPNO-NEVPT2, F12-NEVPT2, CIM, IAO-localization
   Andreas Hansen         : Spin unrestricted coupled pair/coupled cluster methods
   Benjamin Helmich-Paris : MC-RPA, TRAH-SCF, COSX integrals
   Lee Huntington         : MR-EOM, pCC
   Robert Izsak           : Overlap fitted RIJCOSX, COSX-SCS-MP3, EOM
   Marcus Kettner         : VPT2
   Christian Kollmar      : KDIIS, OOCD, Brueckner-CCSD(T), CCSD density, CASPT2, CASPT2-K
   Simone Kossmann        : Meta GGA functionals, TD-DFT gradient, OOMP2, MP2 Hessian
   Martin Krupicka        : Initial AUTO-CI
   Lucas Lang             : DCDCAS
   Marvin Lechner         : AUTO-CI (C++ implementation), FIC-MRCC
   Dagmar Lenk            : GEPOL surface, SMD
   Dimitrios Liakos       : Extrapolation schemes; Compound Job, initial MDCI parallelization
   Dimitrios Manganas     : Further ROCIS development; embedding schemes
   Dimitrios Pantazis     : SARC Basis sets
   Anastasios Papadopoulos: AUTO-CI, single reference methods and gradients
   Taras Petrenko         : DFT Hessian,TD-DFT gradient, ASA, ECA, R-Raman, ABS, FL, XAS/XES, NRVS
   Peter Pinski           : DLPNO-MP2, DLPNO-MP2 Gradient
   Christoph Reimann      : Effective Core Potentials
   Marius Retegan         : Local ZFS, SOC
   Christoph Riplinger    : Optimizer, TS searches, QM/MM, DLPNO-CCSD(T), (RO)-DLPNO pert. Triples
   Tobias Risthaus        : Range-separated hybrids, TD-DFT gradient, RPA, STAB
   Michael Roemelt        : Original ROCIS implementation
   Masaaki Saitow         : Open-shell DLPNO-CCSD energy and density
   Barbara Sandhoefer     : DKH picture change effects
   Avijit Sen             : IP-ROCIS
   Kantharuban Sivalingam : CASSCF convergence, NEVPT2, FIC-MRCI
   Bernardo de Souza      : ESD, SOC TD-DFT
   Georgi Stoychev        : AutoAux, RI-MP2 NMR, DLPNO-MP2 response
   Willem Van den Heuvel  : Paramagnetic NMR
   Boris Wezisla          : Elementary symmetry handling
   Frank Wennmohs         : Technical directorship


 We gratefully acknowledge several colleagues who have allowed us to
 interface, adapt or use parts of their codes:
   Stefan Grimme, W. Hujo, H. Kruse, P. Pracht,  : VdW corrections, initial TS optimization,
                  C. Bannwarth, S. Ehlert          DFT functionals, gCP, sTDA/sTD-DF
   Ed Valeev, F. Pavosevic, A. Kumar             : LibInt (2-el integral package), F12 methods
   Garnet Chan, S. Sharma, J. Yang, R. Olivares  : DMRG
   Ulf Ekstrom                                   : XCFun DFT Library
   Mihaly Kallay                                 : mrcc  (arbitrary order and MRCC methods)
   Jiri Pittner, Ondrej Demel                    : Mk-CCSD
   Frank Weinhold                                : gennbo (NPA and NBO analysis)
   Christopher J. Cramer and Donald G. Truhlar   : smd solvation model
   Lars Goerigk                                  : TD-DFT with DH, B97 family of functionals
   V. Asgeirsson, H. Jonsson                     : NEB implementation
   FAccTs GmbH                                   : IRC, NEB, NEB-TS, DLPNO-Multilevel, CI-OPT
                                                   MM, QMMM, 2- and 3-layer-ONIOM, Crystal-QMMM,
                                                   LR-CPCM, SF, NACMEs, symmetry and pop. for TD-DFT,
                                                   nearIR, NL-DFT gradient (VV10), updates on ESD,
                                                   ML-optimized integration grids
   S Lehtola, MJT Oliveira, MAL Marques          : LibXC Library
   Liviu Ungur et al                             : ANISO software


 Your calculation uses the libint2 library for the computation of 2-el integrals
 For citations please refer to: http://libint.valeyev.net

 Your ORCA version has been built with support for libXC version: 5.1.0
 For citations please refer to: https://tddft.org/programs/libxc/

 This ORCA versions uses:
   CBLAS   interface :  Fast vector & matrix operations
   LAPACKE interface :  Fast linear algebra routines
   SCALAPACK package :  Parallel linear algebra routines
   Shared memory     :  Shared parallel matrices
   BLAS/LAPACK       :  OpenBLAS 0.3.15  USE64BITINT DYNAMIC_ARCH NO_AFFINITY Zen SINGLE_THREADED
        Core in use  :  Zen
   Copyright (c) 2011-2014, The OpenBLAS Project


================================================================================

----- Orbital basis set information -----
Your calculation utilizes the basis: def2-TZVPP
   F. Weigend and R. Ahlrichs, Phys. Chem. Chem. Phys. 7, 3297 (2005).

----- AuxC basis set information -----
Your calculation utilizes the auxiliary basis: def2-TZVPP/C
  H-La, Hf-Rn : A. Hellweg, C. Hattig, S. Hofener and W. Klopper, Theor. Chem. Acc. 117, 587 (2007).
        Ce-Lu : J. Chmela and M. E. Harding, Mol. Phys. (2018).

================================================================================
                                        WARNINGS
                       Please study these warnings very carefully!
================================================================================


WARNING: Post HF methods need fully converged wavefunctions
  ===> : Setting SCFConvForced true
         You can overwrite this default with %scf ConvForced false 


WARNING: MDCI localization with Augmented Hessian Foster-Boys
  ===> : Switching off randomization!

INFO   : the flag for use of the SHARK integral package has been found!

================================================================================
                                       INPUT FILE
================================================================================
NAME = Fluoxetine_1.inp
|  1> ! DLPNO-CCSD(T) def2-TZVPP def2-TZVPP/C VeryTightSCF
|  2> %maxcore 3400
|  3> 
|  4> %pal nprocs 8 
|  5> end
|  6> 
|  7> *xyz 1 1
|  8>  C       -3.530694        2.781360       -1.850126
|  9>  N       -3.036522        2.535871       -0.472741
| 10>  C       -3.894877        1.606086        0.337481
| 11>  C       -3.140863        1.089628        1.550523
| 12>  C       -1.935456        0.209130        1.199481
| 13>  C       -2.333514       -0.987237        0.358380
| 14>  C       -2.079042       -1.044111       -1.006388
| 15>  C       -2.511811       -2.129619       -1.755750
| 16>  C       -3.202272       -3.164971       -1.147107
| 17>  C       -3.449777       -3.118502        0.217549
| 18>  C       -3.015463       -2.036735        0.965830
| 19>  O       -1.012952        1.071058        0.530276
| 20>  C        0.318342        0.721835        0.439688
| 21>  C        0.818724       -0.505282        0.840044
| 22>  C        2.178851       -0.750035        0.711424
| 23>  C        3.021538        0.212808        0.186431
| 24>  C        2.505843        1.437299       -0.217868
| 25>  C        1.156292        1.694167       -0.088913
| 26>  C        4.489910       -0.074905        0.002607
| 27>  F        5.230825        1.027877        0.164494
| 28>  F        4.929580       -0.991856        0.869905
| 29>  F        4.738967       -0.540299       -1.231218
| 30>  H       -4.537418        3.188701       -1.801578
| 31>  H       -3.539653        1.834894       -2.384477
| 32>  H       -2.868356        3.483771       -2.349063
| 33>  H       -2.944238        3.418603        0.025888
| 34>  H       -4.173557        0.786721       -0.324539
| 35>  H       -4.795244        2.150705        0.616514
| 36>  H       -3.841415        0.498974        2.140629
| 37>  H       -2.810582        1.915250        2.185421
| 38>  H       -1.482000       -0.126482        2.135757
| 39>  H       -1.506556       -0.260769       -1.488863
| 40>  H       -2.295387       -2.170760       -2.815325
| 41>  H       -3.535508       -4.012877       -1.730566
| 42>  H       -3.974897       -3.931004        0.702200
| 43>  H       -3.201426       -2.017723        2.034334
| 44>  H        0.176665       -1.280012        1.232805
| 45>  H        2.577450       -1.705015        1.025342
| 46>  H        3.163041        2.195264       -0.621952
| 47>  H        0.749639        2.653737       -0.381568
| 48>  H       -2.089849        2.121670       -0.474780
| 49> *
| 50> 
| 51> 
| 52>                          ****END OF INPUT****
================================================================================

                       ****************************
                       * Single Point Calculation *
                       ****************************

---------------------------------
CARTESIAN COORDINATES (ANGSTROEM)
---------------------------------
  C     -3.530694    2.781360   -1.850126
  N     -3.036522    2.535871   -0.472741
  C     -3.894877    1.606086    0.337481
  C     -3.140863    1.089628    1.550523
  C     -1.935456    0.209130    1.199481
  C     -2.333514   -0.987237    0.358380
  C     -2.079042   -1.044111   -1.006388
  C     -2.511811   -2.129619   -1.755750
  C     -3.202272   -3.164971   -1.147107
  C     -3.449777   -3.118502    0.217549
  C     -3.015463   -2.036735    0.965830
  O     -1.012952    1.071058    0.530276
  C      0.318342    0.721835    0.439688
  C      0.818724   -0.505282    0.840044
  C      2.178851   -0.750035    0.711424
  C      3.021538    0.212808    0.186431
  C      2.505843    1.437299   -0.217868
  C      1.156292    1.694167   -0.088913
  C      4.489910   -0.074905    0.002607
  F      5.230825    1.027877    0.164494
  F      4.929580   -0.991856    0.869905
  F      4.738967   -0.540299   -1.231218
  H     -4.537418    3.188701   -1.801578
  H     -3.539653    1.834894   -2.384477
  H     -2.868356    3.483771   -2.349063
  H     -2.944238    3.418603    0.025888
  H     -4.173557    0.786721   -0.324539
  H     -4.795244    2.150705    0.616514
  H     -3.841415    0.498974    2.140629
  H     -2.810582    1.915250    2.185421
  H     -1.482000   -0.126482    2.135757
  H     -1.506556   -0.260769   -1.488863
  H     -2.295387   -2.170760   -2.815325
  H     -3.535508   -4.012877   -1.730566
  H     -3.974897   -3.931004    0.702200
  H     -3.201426   -2.017723    2.034334
  H      0.176665   -1.280012    1.232805
  H      2.577450   -1.705015    1.025342
  H      3.163041    2.195264   -0.621952
  H      0.749639    2.653737   -0.381568
  H     -2.089849    2.121670   -0.474780

----------------------------
CARTESIAN COORDINATES (A.U.)
----------------------------
  NO LB      ZA    FRAG     MASS         X           Y           Z
   0 C     6.0000    0    12.011   -6.672045    5.256009   -3.496231
   1 N     7.0000    0    14.007   -5.738195    4.792102   -0.893351
   2 C     6.0000    0    12.011   -7.360251    3.035063    0.637747
   3 C     6.0000    0    12.011   -5.935371    2.059099    2.930064
   4 C     6.0000    0    12.011   -3.657482    0.395198    2.266691
   5 C     6.0000    0    12.011   -4.409702   -1.865608    0.677240
   6 C     6.0000    0    12.011   -3.928820   -1.973084   -1.901798
   7 C     6.0000    0    12.011   -4.746635   -4.024397   -3.317887
   8 C     6.0000    0    12.011   -6.051417   -5.980928   -2.167718
   9 C     6.0000    0    12.011   -6.519134   -5.893115    0.411108
  10 C     6.0000    0    12.011   -5.698399   -3.848871    1.825154
  11 O     8.0000    0    15.999   -1.914202    2.024006    1.002076
  12 C     6.0000    0    12.011    0.601579    1.364070    0.830890
  13 C     6.0000    0    12.011    1.547164   -0.954845    1.587453
  14 C     6.0000    0    12.011    4.117432   -1.417361    1.344397
  15 C     6.0000    0    12.011    5.709879    0.402149    0.352304
  16 C     6.0000    0    12.011    4.735357    2.716101   -0.411711
  17 C     6.0000    0    12.011    2.185075    3.201512   -0.168021
  18 C     6.0000    0    12.011    8.484700   -0.141550    0.004927
  19 F     9.0000    0    18.998    9.884827    1.942406    0.310849
  20 F     9.0000    0    18.998    9.315556   -1.874336    1.643882
  21 F     9.0000    0    18.998    8.955350   -1.021017   -2.326665
  22 H     1.0000    0     1.008   -8.574477    6.025772   -3.404489
  23 H     1.0000    0     1.008   -6.688975    3.467447   -4.506009
  24 H     1.0000    0     1.008   -5.420407    6.583373   -4.439086
  25 H     1.0000    0     1.008   -5.563803    6.460223    0.048921
  26 H     1.0000    0     1.008   -7.886880    1.486687   -0.613290
  27 H     1.0000    0     1.008   -9.061698    4.064243    1.165043
  28 H     1.0000    0     1.008   -7.259222    0.942924    4.045203
  29 H     1.0000    0     1.008   -5.311230    3.619298    4.129847
  30 H     1.0000    0     1.008   -2.800574   -0.239016    4.035996
  31 H     1.0000    0     1.008   -2.846978   -0.492782   -2.813543
  32 H     1.0000    0     1.008   -4.337653   -4.102142   -5.320193
  33 H     1.0000    0     1.008   -6.681142   -7.583239   -3.270296
  34 H     1.0000    0     1.008   -7.511467   -7.428521    1.326966
  35 H     1.0000    0     1.008   -6.049818   -3.812944    3.844334
  36 H     1.0000    0     1.008    0.333848   -2.418872    2.329664
  37 H     1.0000    0     1.008    4.870675   -3.222011    1.937616
  38 H     1.0000    0     1.008    5.977281    4.148448   -1.175319
  39 H     1.0000    0     1.008    1.416612    5.014836   -0.721059
  40 H     1.0000    0     1.008   -3.949242    4.009375   -0.897204

--------------------------------
INTERNAL COORDINATES (ANGSTROEM)
--------------------------------
 C      0   0   0     0.000000000000     0.00000000     0.00000000
 N      1   0   0     1.483799263017     0.00000000     0.00000000
 C      2   1   0     1.502575502773   114.37290827     0.00000000
 C      3   2   1     1.518794545593   110.94578825   163.45940530
 C      4   3   2     1.533464459783   113.74465772   294.98855665
 C      5   4   3     1.515650046104   111.95160969   302.46515477
 C      6   5   4     1.389453973503   121.95780753   104.30666264
 C      7   6   5     1.388221895977   120.33945057   182.91759307
 C      8   7   6     1.385329007086   120.17308967     0.04077355
 C      9   8   7     1.387697406253   119.73056587   359.44181559
 C     10   9   8     1.385197800982   120.09649313     0.41931325
 O      5   4   3     1.428904769124   105.56567788    65.42557059
 C     12   5   4     1.379313816326   120.07679494   160.26021098
 C     13  12   5     1.384371050098   123.66250136     7.20031123
 C     14  13  12     1.387945456975   118.92847383   180.36112564
 C     15  14  13     1.383042180364   120.63044731   359.71113097
 C     16  15  14     1.388804242328   119.87228863   359.96136239
 C     17  16  15     1.379818271748   120.00704828     0.34382900
 C     16  15  14     1.507543154848   120.45684286   182.19966240
 F     19  16  15     1.338391040585   111.54311317   212.14533971
 F     19  16  15     1.336530832456   111.85289593   332.89324293
 F     19  16  15     1.341992956431   111.04236257    92.75306760
 H      1   2   3     1.087095584924   109.20567803    57.90865629
 H      1   2   3     1.086926466712   108.36311323   298.19525517
 H      1   2   3     1.086743285755   109.27727072   178.32738216
 H      2   1   3     1.018019155086   109.96260677   237.09328839
 H      3   2   1     1.089629306703   106.48730929    42.70150155
 H      3   2   1     1.088636764462   107.52396280   286.35182639
 H      4   3   2     1.089894647962   107.31424639   174.91783851
 H      4   3   2     1.092626512697   110.92947672    58.58807853
 H      5   4   3     1.093101324972   107.83648764   181.33697913
 H      7   6   5     1.083580654490   120.29942074     5.36581325
 H      8   7   6     1.082234313946   119.72786790   180.90746759
 H      9   8   7     1.081857301687   120.15397149   180.27520929
 H     10   9   8     1.082033782377   120.12467596   180.95819197
 H     11  10   9     1.084732451588   119.47551573   180.90479860
 H     14  13  12     1.080142368164   121.74084204     1.42009358
 H     15  14  13     1.081393764512   119.34297800   179.78377277
 H     17  16  15     1.081528562492   120.06885242   179.54085829
 H     18  17  16     1.082491661092   120.47604954   178.66451204
 H      2   1   3     1.033322986704   111.69117762   120.44760543

---------------------------
INTERNAL COORDINATES (A.U.)
---------------------------
 C      0   0   0     0.000000000000     0.00000000     0.00000000
 N      1   0   0     2.803974244816     0.00000000     0.00000000
 C      2   1   0     2.839456195780   114.37290827     0.00000000
 C      3   2   1     2.870105744865   110.94578825   163.45940530
 C      4   3   2     2.897827865091   113.74465772   294.98855665
 C      5   4   3     2.864163502001   111.95160969   302.46515477
 C      6   5   4     2.625687485610   121.95780753   104.30666264
 C      7   6   5     2.623359196509   120.33945057   182.91759307
 C      8   7   6     2.617892428770   120.17308967     0.04077355
 C      9   8   7     2.622368054572   119.73056587   359.44181559
 C     10   9   8     2.617644485166   120.09649313     0.41931325
 O      5   4   3     2.700238685098   105.56567788    65.42557059
 C     12   5   4     2.606525365591   120.07679494   160.26021098
 C     13  12   5     2.616082152414   123.66250136     7.20031123
 C     14  13  12     2.622836802503   118.92847383   180.36112564
 C     15  14  13     2.613570952550   120.63044731   359.71113097
 C     16  15  14     2.624459671627   119.87228863   359.96136239
 C     17  16  15     2.607478648184   120.00704828     0.34382900
 C     16  15  14     2.848843697730   120.45684286   182.19966240
 F     19  16  15     2.529192526799   111.54311317   212.14533971
 F     19  16  15     2.525677242883   111.85289593   332.89324293
 F     19  16  15     2.535999161306   111.04236257    92.75306760
 H      1   2   3     2.054312936901   109.20567803    57.90865629
 H      1   2   3     2.053993349795   108.36311323   298.19525517
 H      1   2   3     2.053647187955   109.27727072   178.32738216
 H      2   1   3     1.923777402198   109.96260677   237.09328839
 H      3   2   1     2.059100977162   106.48730929    42.70150155
 H      3   2   1     2.057225344152   107.52396280   286.35182639
 H      4   3   2     2.059602399475   107.31424639   174.91783851
 H      4   3   2     2.064764875659   110.92947672    58.58807853
 H      5   4   3     2.065662140824   107.83648764   181.33697913
 H      7   6   5     2.047670681001   120.29942074     5.36581325
 H      8   7   6     2.045126466090   119.72786790   180.90746759
 H      9   8   7     2.044414016171   120.15397149   180.27520929
 H     10   9   8     2.044747516343   120.12467596   180.95819197
 H     11  10   9     2.049847262079   119.47551573   180.90479860
 H     14  13  12     2.041173261474   121.74084204     1.42009358
 H     15  14  13     2.043538057857   119.34297800   179.78377277
 H     17  16  15     2.043792789123   120.06885242   179.54085829
 H     18  17  16     2.045612781718   120.47604954   178.66451204
 H      2   1   3     1.952697452756   111.69117762   120.44760543

---------------------
BASIS SET INFORMATION
---------------------
There are 5 groups of distinct atoms

 Group   1 Type C   : 11s6p2d1f contracted to 5s3p2d1f pattern {62111/411/11/1}
 Group   2 Type N   : 11s6p2d1f contracted to 5s3p2d1f pattern {62111/411/11/1}
 Group   3 Type O   : 11s6p2d1f contracted to 5s3p2d1f pattern {62111/411/11/1}
 Group   4 Type F   : 11s6p2d1f contracted to 5s3p2d1f pattern {62111/411/11/1}
 Group   5 Type H   : 5s2p1d contracted to 3s2p1d pattern {311/11/1}

Atom   0C    basis set group =>   1
Atom   1N    basis set group =>   2
Atom   2C    basis set group =>   1
Atom   3C    basis set group =>   1
Atom   4C    basis set group =>   1
Atom   5C    basis set group =>   1
Atom   6C    basis set group =>   1
Atom   7C    basis set group =>   1
Atom   8C    basis set group =>   1
Atom   9C    basis set group =>   1
Atom  10C    basis set group =>   1
Atom  11O    basis set group =>   3
Atom  12C    basis set group =>   1
Atom  13C    basis set group =>   1
Atom  14C    basis set group =>   1
Atom  15C    basis set group =>   1
Atom  16C    basis set group =>   1
Atom  17C    basis set group =>   1
Atom  18C    basis set group =>   1
Atom  19F    basis set group =>   4
Atom  20F    basis set group =>   4
Atom  21F    basis set group =>   4
Atom  22H    basis set group =>   5
Atom  23H    basis set group =>   5
Atom  24H    basis set group =>   5
Atom  25H    basis set group =>   5
Atom  26H    basis set group =>   5
Atom  27H    basis set group =>   5
Atom  28H    basis set group =>   5
Atom  29H    basis set group =>   5
Atom  30H    basis set group =>   5
Atom  31H    basis set group =>   5
Atom  32H    basis set group =>   5
Atom  33H    basis set group =>   5
Atom  34H    basis set group =>   5
Atom  35H    basis set group =>   5
Atom  36H    basis set group =>   5
Atom  37H    basis set group =>   5
Atom  38H    basis set group =>   5
Atom  39H    basis set group =>   5
Atom  40H    basis set group =>   5
---------------------------------
AUXILIARY/C BASIS SET INFORMATION
---------------------------------
There are 5 groups of distinct atoms

 Group   1 Type C   : 8s6p5d3f1g contracted to 8s6p4d3f1g pattern {11111111/111111/2111/111/1}
 Group   2 Type N   : 8s6p5d3f1g contracted to 8s6p4d3f1g pattern {11111111/111111/2111/111/1}
 Group   3 Type O   : 8s6p5d3f1g contracted to 8s6p4d3f1g pattern {11111111/111111/2111/111/1}
 Group   4 Type F   : 8s6p5d3f1g contracted to 8s6p4d3f1g pattern {11111111/111111/2111/111/1}
 Group   5 Type H   : 4s3p2d1f contracted to 4s3p2d1f pattern {1111/111/11/1}

Atom   0C    basis set group =>   1
Atom   1N    basis set group =>   2
Atom   2C    basis set group =>   1
Atom   3C    basis set group =>   1
Atom   4C    basis set group =>   1
Atom   5C    basis set group =>   1
Atom   6C    basis set group =>   1
Atom   7C    basis set group =>   1
Atom   8C    basis set group =>   1
Atom   9C    basis set group =>   1
Atom  10C    basis set group =>   1
Atom  11O    basis set group =>   3
Atom  12C    basis set group =>   1
Atom  13C    basis set group =>   1
Atom  14C    basis set group =>   1
Atom  15C    basis set group =>   1
Atom  16C    basis set group =>   1
Atom  17C    basis set group =>   1
Atom  18C    basis set group =>   1
Atom  19F    basis set group =>   4
Atom  20F    basis set group =>   4
Atom  21F    basis set group =>   4
Atom  22H    basis set group =>   5
Atom  23H    basis set group =>   5
Atom  24H    basis set group =>   5
Atom  25H    basis set group =>   5
Atom  26H    basis set group =>   5
Atom  27H    basis set group =>   5
Atom  28H    basis set group =>   5
Atom  29H    basis set group =>   5
Atom  30H    basis set group =>   5
Atom  31H    basis set group =>   5
Atom  32H    basis set group =>   5
Atom  33H    basis set group =>   5
Atom  34H    basis set group =>   5
Atom  35H    basis set group =>   5
Atom  36H    basis set group =>   5
Atom  37H    basis set group =>   5
Atom  38H    basis set group =>   5
Atom  39H    basis set group =>   5
Atom  40H    basis set group =>   5


           ************************************************************
           *        Program running with 8 parallel MPI-processes     *
           *              working on a common directory               *
           ************************************************************
------------------------------------------------------------------------------
                           ORCA GTO INTEGRAL CALCULATION
------------------------------------------------------------------------------
------------------------------------------------------------------------------
                   ___                                                        
                  /   \      - P O W E R E D   B Y -                         
                 /     \                                                     
                 |  |  |   _    _      __       _____    __    __             
                 |  |  |  | |  | |    /  \     |  _  \  |  |  /  |          
                  \  \/   | |  | |   /    \    | | | |  |  | /  /          
                 / \  \   | |__| |  /  /\  \   | |_| |  |  |/  /          
                |  |  |   |  __  | /  /__\  \  |    /   |      \           
                |  |  |   | |  | | |   __   |  |    \   |  |\   \          
                \     /   | |  | | |  |  |  |  | |\  \  |  | \   \       
                 \___/    |_|  |_| |__|  |__|  |_| \__\ |__|  \__/        
                                                                              
                      - O R C A' S   B I G   F R I E N D -                    
                                      &                                       
                       - I N T E G R A L  F E E D E R -                       
                                                                              
 v1 FN, 2020, v2 2021                                                         
------------------------------------------------------------------------------


Reading SHARK input file Fluoxetine_1.SHARKINP.tmp ... ok
----------------------
SHARK INTEGRAL PACKAGE
----------------------

Number of atoms                             ...     41
Number of basis functions                   ...    948
Number of shells                            ...    356
Maximum angular momentum                    ...      3
Integral batch strategy                     ... SHARK/LIBINT Hybrid
RI-J (if used) integral strategy            ... SPLIT-RIJ (Revised 2003 algorithm where possible)
Printlevel                                  ...      1
Contraction scheme used                     ... SEGMENTED contraction
Coulomb Range Separation                    ... NOT USED
Exchange Range Separation                   ... NOT USED
Finite Nucleus Model                        ... NOT USED
Auxiliary Coulomb fitting basis             ... NOT available
Auxiliary J/K fitting basis                 ... NOT available
Auxiliary Correlation fitting basis         ... AVAILABLE
   # of basis functions in Aux-C            ...   2242
   # of shells in Aux-C                     ...    674
   Maximum angular momentum in Aux-C        ...      4
Auxiliary 'external' fitting basis          ... NOT available
Integral threshold                          ...     1.000000e-12
Primitive cut-off                           ...     1.000000e-14
Primitive pair pre-selection threshold      ...     1.000000e-14

Calculating pre-screening integrals         ... done (  0.1 sec) Dimension = 356
Organizing shell pair data                  ... done (  0.3 sec)
Shell pair information
Total number of shell pairs                 ...     63546
Shell pairs after pre-screening             ...     45615
Total number of primitive shell pairs       ...    176069
Primitive shell pairs kept                  ...     87728
          la=0 lb=0:  10099 shell pairs
          la=1 lb=0:  13011 shell pairs
          la=1 lb=1:   4262 shell pairs
          la=2 lb=0:   7131 shell pairs
          la=2 lb=1:   4700 shell pairs
          la=2 lb=2:   1284 shell pairs
          la=3 lb=0:   2466 shell pairs
          la=3 lb=1:   1627 shell pairs
          la=3 lb=2:    868 shell pairs
          la=3 lb=3:    167 shell pairs

Calculating one electron integrals          ... done (  0.1 sec)
Calculating RI/C V-Matrix + Cholesky decomp.... done (  0.4 sec)
Calculating Nuclear repulsion               ... done (  0.0 sec) ENN=   1833.674625727328 Eh

SHARK setup successfully completed in   1.6 seconds

Maximum memory used throughout the entire GTOINT-calculation: 71.9 MB
[1696462133.033556] [nc30301:1030012:0]          mpool.c:42   UCX  WARN  object 0xa754bc0 was not returned to mpool ucp_requests
[1696462133.033575] [nc30301:1030012:0]          mpool.c:42   UCX  WARN  object 0xa754d80 was not returned to mpool ucp_requests
[1696462133.033578] [nc30301:1030012:0]          mpool.c:42   UCX  WARN  object 0xa754f40 was not returned to mpool ucp_requests
[1696462133.033581] [nc30301:1030012:0]          mpool.c:42   UCX  WARN  object 0xa755100 was not returned to mpool ucp_requests
[1696462133.033584] [nc30301:1030012:0]          mpool.c:42   UCX  WARN  object 0xa7552c0 was not returned to mpool ucp_requests
[1696462133.033586] [nc30301:1030012:0]          mpool.c:42   UCX  WARN  object 0xa755480 was not returned to mpool ucp_requests
[1696462133.033588] [nc30301:1030012:0]          mpool.c:42   UCX  WARN  object 0xa755640 was not returned to mpool ucp_requests
[1696462133.033591] [nc30301:1030012:0]          mpool.c:42   UCX  WARN  object 0xa755800 was not returned to mpool ucp_requests
[1696462133.033595] [nc30301:1030012:0]          mpool.c:42   UCX  WARN  object 0xa7559c0 was not returned to mpool ucp_requests
[1696462133.033598] [nc30301:1030012:0]          mpool.c:42   UCX  WARN  object 0xa755b80 was not returned to mpool ucp_requests
[1696462133.033600] [nc30301:1030012:0]          mpool.c:42   UCX  WARN  object 0xa755d40 was not returned to mpool ucp_requests
[1696462133.033604] [nc30301:1030012:0]          mpool.c:42   UCX  WARN  object 0xa755f00 was not returned to mpool ucp_requests
[1696462133.033608] [nc30301:1030012:0]          mpool.c:42   UCX  WARN  object 0xa7560c0 was not returned to mpool ucp_requests
[1696462133.033610] [nc30301:1030012:0]          mpool.c:42   UCX  WARN  object 0xa756280 was not returned to mpool ucp_requests
[1696462133.033613] [nc30301:1030012:0]          mpool.c:42   UCX  WARN  object 0xa756440 was not returned to mpool ucp_requests
[1696462133.033615] [nc30301:1030012:0]          mpool.c:42   UCX  WARN  object 0xa756600 was not returned to mpool ucp_requests
[1696462133.033617] [nc30301:1030012:0]          mpool.c:42   UCX  WARN  object 0xa7567c0 was not returned to mpool ucp_requests
[1696462133.033638] [nc30301:1030010:0]          mpool.c:42   UCX  WARN  object 0xac5f1c0 was not returned to mpool ucp_requests
[1696462133.033657] [nc30301:1030010:0]          mpool.c:42   UCX  WARN  object 0xac5f380 was not returned to mpool ucp_requests
[1696462133.033671] [nc30301:1030010:0]          mpool.c:42   UCX  WARN  object 0xac5f540 was not returned to mpool ucp_requests
[1696462133.033674] [nc30301:1030010:0]          mpool.c:42   UCX  WARN  object 0xac5f700 was not returned to mpool ucp_requests
[1696462133.033679] [nc30301:1030010:0]          mpool.c:42   UCX  WARN  object 0xac5f8c0 was not returned to mpool ucp_requests
[1696462133.033683] [nc30301:1030010:0]          mpool.c:42   UCX  WARN  object 0xac5fa80 was not returned to mpool ucp_requests
[1696462133.033686] [nc30301:1030010:0]          mpool.c:42   UCX  WARN  object 0xac5fc40 was not returned to mpool ucp_requests
[1696462133.033690] [nc30301:1030010:0]          mpool.c:42   UCX  WARN  object 0xac5fe00 was not returned to mpool ucp_requests
[1696462133.033693] [nc30301:1030010:0]          mpool.c:42   UCX  WARN  object 0xac5ffc0 was not returned to mpool ucp_requests
[1696462133.033697] [nc30301:1030010:0]          mpool.c:42   UCX  WARN  object 0xac60180 was not returned to mpool ucp_requests
[1696462133.033700] [nc30301:1030010:0]          mpool.c:42   UCX  WARN  object 0xac60340 was not returned to mpool ucp_requests
[1696462133.033704] [nc30301:1030010:0]          mpool.c:42   UCX  WARN  object 0xac60500 was not returned to mpool ucp_requests
[1696462133.033707] [nc30301:1030010:0]          mpool.c:42   UCX  WARN  object 0xac606c0 was not returned to mpool ucp_requests
[1696462133.033711] [nc30301:1030010:0]          mpool.c:42   UCX  WARN  object 0xac60880 was not returned to mpool ucp_requests
[1696462133.033714] [nc30301:1030010:0]          mpool.c:42   UCX  WARN  object 0xac60a40 was not returned to mpool ucp_requests
[1696462133.033718] [nc30301:1030010:0]          mpool.c:42   UCX  WARN  object 0xac60c00 was not returned to mpool ucp_requests
[1696462133.033721] [nc30301:1030010:0]          mpool.c:42   UCX  WARN  object 0xac60dc0 was not returned to mpool ucp_requests
[1696462133.033723] [nc30301:1030010:0]          mpool.c:42   UCX  WARN  object 0xac60f80 was not returned to mpool ucp_requests
[1696462133.033726] [nc30301:1030010:0]          mpool.c:42   UCX  WARN  object 0xac61140 was not returned to mpool ucp_requests
[1696462133.034014] [nc30301:1030007:0]          mpool.c:42   UCX  WARN  object 0xa7c6b80 was not returned to mpool ucp_requests
[1696462133.034025] [nc30301:1030007:0]          mpool.c:42   UCX  WARN  object 0xa7c6d40 was not returned to mpool ucp_requests
[1696462133.034029] [nc30301:1030007:0]          mpool.c:42   UCX  WARN  object 0xa7c6f00 was not returned to mpool ucp_requests
[1696462133.034033] [nc30301:1030007:0]          mpool.c:42   UCX  WARN  object 0xa7c70c0 was not returned to mpool ucp_requests
[1696462133.034038] [nc30301:1030007:0]          mpool.c:42   UCX  WARN  object 0xa7c7280 was not returned to mpool ucp_requests
[1696462133.034042] [nc30301:1030007:0]          mpool.c:42   UCX  WARN  object 0xa7c7440 was not returned to mpool ucp_requests
[1696462133.034046] [nc30301:1030007:0]          mpool.c:42   UCX  WARN  object 0xa7c7600 was not returned to mpool ucp_requests
[1696462133.034049] [nc30301:1030007:0]          mpool.c:42   UCX  WARN  object 0xa7c77c0 was not returned to mpool ucp_requests
[1696462133.034053] [nc30301:1030007:0]          mpool.c:42   UCX  WARN  object 0xa7c7980 was not returned to mpool ucp_requests
[1696462133.034056] [nc30301:1030007:0]          mpool.c:42   UCX  WARN  object 0xa7c7b40 was not returned to mpool ucp_requests
[1696462133.034060] [nc30301:1030007:0]          mpool.c:42   UCX  WARN  object 0xa7c7d00 was not returned to mpool ucp_requests
[1696462133.034064] [nc30301:1030007:0]          mpool.c:42   UCX  WARN  object 0xa7c7ec0 was not returned to mpool ucp_requests
[1696462133.034068] [nc30301:1030007:0]          mpool.c:42   UCX  WARN  object 0xa7c8080 was not returned to mpool ucp_requests
[1696462133.034071] [nc30301:1030007:0]          mpool.c:42   UCX  WARN  object 0xa7c8240 was not returned to mpool ucp_requests
[1696462133.034075] [nc30301:1030007:0]          mpool.c:42   UCX  WARN  object 0xa7c8400 was not returned to mpool ucp_requests
[1696462133.034079] [nc30301:1030007:0]          mpool.c:42   UCX  WARN  object 0xa7c85c0 was not returned to mpool ucp_requests
[1696462133.034083] [nc30301:1030007:0]          mpool.c:42   UCX  WARN  object 0xa7c8780 was not returned to mpool ucp_requests
[1696462133.034087] [nc30301:1030007:0]          mpool.c:42   UCX  WARN  object 0xa7c8940 was not returned to mpool ucp_requests
[1696462133.035344] [nc30301:1030006:0]          mpool.c:42   UCX  WARN  object 0xad86400 was not returned to mpool ucp_requests
[1696462133.035359] [nc30301:1030006:0]          mpool.c:42   UCX  WARN  object 0xad865c0 was not returned to mpool ucp_requests
[1696462133.035362] [nc30301:1030006:0]          mpool.c:42   UCX  WARN  object 0xad86780 was not returned to mpool ucp_requests
[1696462133.035365] [nc30301:1030006:0]          mpool.c:42   UCX  WARN  object 0xad86940 was not returned to mpool ucp_requests
[1696462133.035368] [nc30301:1030006:0]          mpool.c:42   UCX  WARN  object 0xad86cc0 was not returned to mpool ucp_requests
[1696462133.035370] [nc30301:1030006:0]          mpool.c:42   UCX  WARN  object 0xad86e80 was not returned to mpool ucp_requests
[1696462133.035372] [nc30301:1030006:0]          mpool.c:42   UCX  WARN  object 0xad87040 was not returned to mpool ucp_requests
[1696462133.035375] [nc30301:1030006:0]          mpool.c:42   UCX  WARN  object 0xad87200 was not returned to mpool ucp_requests
[1696462133.035377] [nc30301:1030006:0]          mpool.c:42   UCX  WARN  object 0xad873c0 was not returned to mpool ucp_requests
[1696462133.035477] [nc30301:1030011:0]          mpool.c:42   UCX  WARN  object 0xb7311c0 was not returned to mpool ucp_requests
[1696462133.035488] [nc30301:1030011:0]          mpool.c:42   UCX  WARN  object 0xb731380 was not returned to mpool ucp_requests
[1696462133.035491] [nc30301:1030011:0]          mpool.c:42   UCX  WARN  object 0xb731540 was not returned to mpool ucp_requests
[1696462133.035494] [nc30301:1030011:0]          mpool.c:42   UCX  WARN  object 0xb731700 was not returned to mpool ucp_requests
[1696462133.035497] [nc30301:1030011:0]          mpool.c:42   UCX  WARN  object 0xb7318c0 was not returned to mpool ucp_requests
[1696462133.035499] [nc30301:1030011:0]          mpool.c:42   UCX  WARN  object 0xb731a80 was not returned to mpool ucp_requests
[1696462133.035501] [nc30301:1030011:0]          mpool.c:42   UCX  WARN  object 0xb731c40 was not returned to mpool ucp_requests
[1696462133.035504] [nc30301:1030011:0]          mpool.c:42   UCX  WARN  object 0xb731e00 was not returned to mpool ucp_requests
[1696462133.035506] [nc30301:1030011:0]          mpool.c:42   UCX  WARN  object 0xb731fc0 was not returned to mpool ucp_requests
[1696462133.035508] [nc30301:1030011:0]          mpool.c:42   UCX  WARN  object 0xb732180 was not returned to mpool ucp_requests
[1696462133.035511] [nc30301:1030011:0]          mpool.c:42   UCX  WARN  object 0xb732340 was not returned to mpool ucp_requests
[1696462133.035513] [nc30301:1030011:0]          mpool.c:42   UCX  WARN  object 0xb732500 was not returned to mpool ucp_requests
[1696462133.035516] [nc30301:1030011:0]          mpool.c:42   UCX  WARN  object 0xb7326c0 was not returned to mpool ucp_requests
[1696462133.035518] [nc30301:1030011:0]          mpool.c:42   UCX  WARN  object 0xb732880 was not returned to mpool ucp_requests
[1696462133.035520] [nc30301:1030011:0]          mpool.c:42   UCX  WARN  object 0xb732a40 was not returned to mpool ucp_requests
[1696462133.035523] [nc30301:1030011:0]          mpool.c:42   UCX  WARN  object 0xb732c00 was not returned to mpool ucp_requests
[1696462133.035525] [nc30301:1030011:0]          mpool.c:42   UCX  WARN  object 0xb732dc0 was not returned to mpool ucp_requests
[1696462133.036171] [nc30301:1030008:0]          mpool.c:42   UCX  WARN  object 0xaa93780 was not returned to mpool ucp_requests
[1696462133.036192] [nc30301:1030008:0]          mpool.c:42   UCX  WARN  object 0xaa93940 was not returned to mpool ucp_requests
[1696462133.036195] [nc30301:1030008:0]          mpool.c:42   UCX  WARN  object 0xaa93b00 was not returned to mpool ucp_requests
[1696462133.036198] [nc30301:1030008:0]          mpool.c:42   UCX  WARN  object 0xaa93cc0 was not returned to mpool ucp_requests
[1696462133.036201] [nc30301:1030008:0]          mpool.c:42   UCX  WARN  object 0xaa93e80 was not returned to mpool ucp_requests
[1696462133.036203] [nc30301:1030008:0]          mpool.c:42   UCX  WARN  object 0xaa94040 was not returned to mpool ucp_requests
[1696462133.036205] [nc30301:1030008:0]          mpool.c:42   UCX  WARN  object 0xaa94200 was not returned to mpool ucp_requests
[1696462133.036208] [nc30301:1030008:0]          mpool.c:42   UCX  WARN  object 0xaa943c0 was not returned to mpool ucp_requests
[1696462133.036210] [nc30301:1030008:0]          mpool.c:42   UCX  WARN  object 0xaa94580 was not returned to mpool ucp_requests
[1696462133.036213] [nc30301:1030008:0]          mpool.c:42   UCX  WARN  object 0xaa94740 was not returned to mpool ucp_requests
[1696462133.036215] [nc30301:1030008:0]          mpool.c:42   UCX  WARN  object 0xaa94900 was not returned to mpool ucp_requests
[1696462133.036217] [nc30301:1030008:0]          mpool.c:42   UCX  WARN  object 0xaa94ac0 was not returned to mpool ucp_requests
[1696462133.036220] [nc30301:1030008:0]          mpool.c:42   UCX  WARN  object 0xaa94c80 was not returned to mpool ucp_requests
[1696462133.036222] [nc30301:1030008:0]          mpool.c:42   UCX  WARN  object 0xaa94e40 was not returned to mpool ucp_requests
[1696462133.036225] [nc30301:1030008:0]          mpool.c:42   UCX  WARN  object 0xaa95000 was not returned to mpool ucp_requests
[1696462133.036227] [nc30301:1030008:0]          mpool.c:42   UCX  WARN  object 0xaa951c0 was not returned to mpool ucp_requests
[1696462133.036230] [nc30301:1030008:0]          mpool.c:42   UCX  WARN  object 0xaa95380 was not returned to mpool ucp_requests
[1696462133.036233] [nc30301:1030008:0]          mpool.c:42   UCX  WARN  object 0xaa95540 was not returned to mpool ucp_requests
[1696462133.036114] [nc30301:1030009:0]          mpool.c:42   UCX  WARN  object 0xb48f5c0 was not returned to mpool ucp_requests
[1696462133.036125] [nc30301:1030009:0]          mpool.c:42   UCX  WARN  object 0xb48f780 was not returned to mpool ucp_requests
[1696462133.036128] [nc30301:1030009:0]          mpool.c:42   UCX  WARN  object 0xb48f940 was not returned to mpool ucp_requests
[1696462133.036131] [nc30301:1030009:0]          mpool.c:42   UCX  WARN  object 0xb48fb00 was not returned to mpool ucp_requests
[1696462133.036134] [nc30301:1030009:0]          mpool.c:42   UCX  WARN  object 0xb48fcc0 was not returned to mpool ucp_requests
[1696462133.036136] [nc30301:1030009:0]          mpool.c:42   UCX  WARN  object 0xb48fe80 was not returned to mpool ucp_requests
[1696462133.036138] [nc30301:1030009:0]          mpool.c:42   UCX  WARN  object 0xb490040 was not returned to mpool ucp_requests
[1696462133.036141] [nc30301:1030009:0]          mpool.c:42   UCX  WARN  object 0xb490200 was not returned to mpool ucp_requests
[1696462133.036143] [nc30301:1030009:0]          mpool.c:42   UCX  WARN  object 0xb4903c0 was not returned to mpool ucp_requests
[1696462133.036146] [nc30301:1030009:0]          mpool.c:42   UCX  WARN  object 0xb490580 was not returned to mpool ucp_requests
[1696462133.036149] [nc30301:1030009:0]          mpool.c:42   UCX  WARN  object 0xb490740 was not returned to mpool ucp_requests
[1696462133.036151] [nc30301:1030009:0]          mpool.c:42   UCX  WARN  object 0xb490900 was not returned to mpool ucp_requests
[1696462133.036153] [nc30301:1030009:0]          mpool.c:42   UCX  WARN  object 0xb490ac0 was not returned to mpool ucp_requests
[1696462133.036156] [nc30301:1030009:0]          mpool.c:42   UCX  WARN  object 0xb490c80 was not returned to mpool ucp_requests
[1696462133.036159] [nc30301:1030009:0]          mpool.c:42   UCX  WARN  object 0xb490e40 was not returned to mpool ucp_requests
[1696462133.036161] [nc30301:1030009:0]          mpool.c:42   UCX  WARN  object 0xb491000 was not returned to mpool ucp_requests
[1696462133.036164] [nc30301:1030009:0]          mpool.c:42   UCX  WARN  object 0xb4911c0 was not returned to mpool ucp_requests
[1696462133.036166] [nc30301:1030009:0]          mpool.c:42   UCX  WARN  object 0xb491380 was not returned to mpool ucp_requests
[1696462133.036168] [nc30301:1030009:0]          mpool.c:42   UCX  WARN  object 0xb491540 was not returned to mpool ucp_requests


           ************************************************************
           *        Program running with 8 parallel MPI-processes     *
           *              working on a common directory               *
           ************************************************************
-------------------------------------------------------------------------------
                                 ORCA SCF
-------------------------------------------------------------------------------

------------
SCF SETTINGS
------------
Hamiltonian:
 Ab initio Hamiltonian  Method          .... Hartree-Fock(GTOs)


General Settings:
 Integral files         IntName         .... Fluoxetine_1
 Hartree-Fock type      HFTyp           .... RHF
 Total Charge           Charge          ....    1
 Multiplicity           Mult            ....    1
 Number of Electrons    NEL             ....  162
 Basis Dimension        Dim             ....  948
 Nuclear Repulsion      ENuc            ....   1833.6746257273 Eh

Convergence Acceleration:
 DIIS                   CNVDIIS         .... on
   Start iteration      DIISMaxIt       ....    12
   Startup error        DIISStart       ....  0.200000
   # of expansion vecs  DIISMaxEq       ....     5
   Bias factor          DIISBfac        ....   1.050
   Max. coefficient     DIISMaxC        ....  10.000
 Trust-Rad. Augm. Hess. CNVTRAH         .... auto
   Auto Start mean grad. ratio tolernc. ....  1.125000
   Auto Start start iteration           ....    20
   Auto Start num. interpolation iter.  ....    10
   Max. Number of Micro iterations      ....    16
   Max. Number of Macro iterations      .... Maxiter - #DIIS iter
   Number of Davidson start vectors     ....     2
   Converg. threshold I  (grad. norm)   ....   2.000e-06
   Converg. threshold II (energy diff.) ....   1.000e-09
   Grad. Scal. Fac. for Micro threshold ....   0.100
   Minimum threshold for Micro iter.    ....   0.010
   NR start threshold (gradient norm)   ....   0.001
   Initial trust radius                 ....   0.400
   Minimum AH scaling param. (alpha)    ....   1.000
   Maximum AH scaling param. (alpha)    .... 1000.000
   Orbital update algorithm             .... Taylor
   White noise on init. David. guess    .... on
   Maximum white noise                  ....   0.010
   Quad. conv. algorithm                .... NR
 SOSCF                  CNVSOSCF        .... on
   Start iteration      SOSCFMaxIt      ....   150
   Startup grad/error   SOSCFStart      ....  0.003300
 Level Shifting         CNVShift        .... on
   Level shift para.    LevelShift      ....    0.2500
   Turn off err/grad.   ShiftErr        ....    0.0010
 Zerner damping         CNVZerner       .... off
 Static damping         CNVDamp         .... on
   Fraction old density DampFac         ....    0.7000
   Max. Damping (<1)    DampMax         ....    0.9800
   Min. Damping (>=0)   DampMin         ....    0.0000
   Turn off err/grad.   DampErr         ....    0.1000
 Fernandez-Rico         CNVRico         .... off

SCF Procedure:
 Maximum # iterations   MaxIter         ....   125
 SCF integral mode      SCFMode         .... Direct
   Integral package                     .... SHARK and LIBINT hybrid scheme
 Reset frequency        DirectResetFreq ....    20
 Integral Threshold     Thresh          ....  1.000e-12 Eh
 Primitive CutOff       TCut            ....  1.000e-14 Eh

Convergence Tolerance:
 Convergence Check Mode ConvCheckMode   .... Total+1el-Energy
 Convergence forced     ConvForced      .... 1
 Energy Change          TolE            ....  1.000e-09 Eh
 1-El. energy change                    ....  1.000e-06 Eh
 Orbital Gradient       TolG            ....  2.000e-06
 Orbital Rotation angle TolX            ....  2.000e-06
 DIIS Error             TolErr          ....  1.000e-08


Diagonalization of the overlap matrix:
Smallest eigenvalue                        ... 5.830e-06
Time for diagonalization                   ...    0.198 sec
Threshold for overlap eigenvalues          ... 1.000e-08
Number of eigenvalues below threshold      ... 0
Time for construction of square roots      ...    0.103 sec
Total time needed                          ...    0.305 sec

Time for model grid setup =    0.303 sec

------------------------------
INITIAL GUESS: MODEL POTENTIAL
------------------------------
Loading Hartree-Fock densities                     ... done
Calculating cut-offs                               ... done
Initializing the effective Hamiltonian             ... done
Setting up the integral package (SHARK)            ... done
Starting the Coulomb interaction                   ... done (   0.8 sec)
Reading the grid                                   ... done
Mapping shells                                     ... done
Starting the XC term evaluation                    ... done (   0.2 sec)
Transforming the Hamiltonian                       ... done (   0.1 sec)
Diagonalizing the Hamiltonian                      ... done (   0.2 sec)
Back transforming the eigenvectors                 ... done (   0.0 sec)
Now organizing SCF variables                       ... done
                      ------------------
                      INITIAL GUESS DONE (   1.6 sec)
                      ------------------
--------------
SCF ITERATIONS
--------------
ITER       Energy         Delta-E        Max-DP      RMS-DP      [F,P]     Damp
               ***  Starting incremental Fock matrix formation  ***
  0  -1081.8937526921   0.000000000000 0.03382306  0.00047587  0.3471116 0.7000
  1  -1082.1543440444  -0.260591352365 0.02526422  0.00039138  0.2522730 0.7000
                               ***Turning on DIIS***
  2  -1082.3194161815  -0.165072137044 0.01919986  0.00028292  0.1826248 0.7000
  3  -1084.2591536454  -1.939737463909 0.01800034  0.00021294  0.1316537 0.7000
  4  -1084.0397470141   0.219406631310 0.04693433  0.00054809  0.0929157 0.0000
  5  -1082.7334353034   1.306311710693 0.00666031  0.00006570  0.0042748 0.0000
                      *** Initiating the SOSCF procedure ***
                           *** Shutting down DIIS ***
                      *** Re-Reading the Fockian *** 
                      *** Removing any level shift *** 
ITER      Energy       Delta-E        Grad      Rot      Max-DP    RMS-DP
  6  -1082.67706560   0.0563697083  0.000880  0.000880  0.004024  0.000031
               *** Restarting incremental Fock matrix formation ***
  7  -1082.67898425  -0.0019186581  0.000495  0.000815  0.002278  0.000015
  8  -1082.67900218  -0.0000179250  0.000132  0.000523  0.001830  0.000012
  9  -1082.67900658  -0.0000044004  0.000079  0.000117  0.000379  0.000003
 10  -1082.67900700  -0.0000004257  0.000047  0.000115  0.000129  0.000001
 11  -1082.67900708  -0.0000000779  0.000018  0.000068  0.000026  0.000000
 12  -1082.67900711  -0.0000000248  0.000009  0.000036  0.000029  0.000000
 13  -1082.67900711  -0.0000000039  0.000002  0.000013  0.000016  0.000000
 14  -1082.67900711  -0.0000000006  0.000001  0.000002  0.000003  0.000000
                  ***Gradient check signals convergence***
              ***Rediagonalizing the Fockian in SOSCF/NRSCF***

               *****************************************************
               *                     SUCCESS                       *
               *           SCF CONVERGED AFTER  15 CYCLES          *
               *****************************************************


----------------
TOTAL SCF ENERGY
----------------

Total Energy       :        -1082.67900711 Eh          -29461.19356 eV

Components:
Nuclear Repulsion  :         1833.67462573 Eh           49896.82327 eV
Electronic Energy  :        -2916.35363284 Eh          -79358.01683 eV
One Electron Energy:        -5109.06676204 Eh         -139024.77448 eV
Two Electron Energy:         2192.71312920 Eh           59666.75764 eV

Virial components:
Potential Energy   :        -2164.52306923 Eh          -58899.66712 eV
Kinetic Energy     :         1081.84406212 Eh           29438.47355 eV
Virial Ratio       :            2.00077178


---------------
SCF CONVERGENCE
---------------

  Last Energy change         ...   -1.5052e-10  Tolerance :   1.0000e-09
  Last MAX-Density change    ...    9.4230e-07  Tolerance :   1.0000e-08
  Last RMS-Density change    ...    1.2601e-08  Tolerance :   1.0000e-09
  Last Orbital Gradient      ...    2.0148e-07  Tolerance :   2.0000e-06
  Last Orbital Rotation      ...    4.0682e-07  Tolerance :   2.0000e-06

             **** THE GBW FILE WAS UPDATED (Fluoxetine_1.gbw) ****
             **** DENSITY Fluoxetine_1.scfp WAS UPDATED ****
             **** ENERGY FILE WAS UPDATED (Fluoxetine_1.en.tmp) ****
             **** THE GBW FILE WAS UPDATED (Fluoxetine_1.gbw) ****
             **** DENSITY Fluoxetine_1.scfp WAS UPDATED ****
----------------
ORBITAL ENERGIES
----------------

  NO   OCC          E(Eh)            E(eV) 
   0   2.0000     -26.405504      -718.5303 
   1   2.0000     -26.404657      -718.5072 
   2   2.0000     -26.400184      -718.3855 
   3   2.0000     -20.732518      -564.1605 
   4   2.0000     -15.843170      -431.1146 
   5   2.0000     -11.579446      -315.0928 
   6   2.0000     -11.445820      -311.4566 
   7   2.0000     -11.444056      -311.4086 
   8   2.0000     -11.441537      -311.3400 
   9   2.0000     -11.426428      -310.9289 
  10   2.0000     -11.389752      -309.9309 
  11   2.0000     -11.364311      -309.2386 
  12   2.0000     -11.355676      -309.0036 
  13   2.0000     -11.355127      -308.9887 
  14   2.0000     -11.352826      -308.9261 
  15   2.0000     -11.351025      -308.8771 
  16   2.0000     -11.349945      -308.8477 
  17   2.0000     -11.348606      -308.8113 
  18   2.0000     -11.347773      -308.7886 
  19   2.0000     -11.347730      -308.7874 
  20   2.0000     -11.346642      -308.7578 
  21   2.0000     -11.342276      -308.6390 
  22   2.0000      -1.798798       -48.9478 
  23   2.0000      -1.704246       -46.3749 
  24   2.0000      -1.699290       -46.2400 
  25   2.0000      -1.560850       -42.4729 
  26   2.0000      -1.481213       -40.3059 
  27   2.0000      -1.289554       -35.0906 
  28   2.0000      -1.277316       -34.7575 
  29   2.0000      -1.233899       -33.5761 
  30   2.0000      -1.170313       -31.8458 
  31   2.0000      -1.154238       -31.4084 
  32   2.0000      -1.142086       -31.0777 
  33   2.0000      -1.135478       -30.8979 
  34   2.0000      -1.121106       -30.5069 
  35   2.0000      -1.083733       -29.4899 
  36   2.0000      -1.039738       -28.2927 
  37   2.0000      -1.004188       -27.3253 
  38   2.0000      -0.966446       -26.2983 
  39   2.0000      -0.961698       -26.1691 
  40   2.0000      -0.946207       -25.7476 
  41   2.0000      -0.943845       -25.6833 
  42   2.0000      -0.916074       -24.9277 
  43   2.0000      -0.891272       -24.2527 
  44   2.0000      -0.889175       -24.1957 
  45   2.0000      -0.880712       -23.9654 
  46   2.0000      -0.862721       -23.4758 
  47   2.0000      -0.849545       -23.1173 
  48   2.0000      -0.823620       -22.4118 
  49   2.0000      -0.822197       -22.3731 
  50   2.0000      -0.798881       -21.7387 
  51   2.0000      -0.787771       -21.4363 
  52   2.0000      -0.779191       -21.2029 
  53   2.0000      -0.775126       -21.0922 
  54   2.0000      -0.761655       -20.7257 
  55   2.0000      -0.751620       -20.4526 
  56   2.0000      -0.747143       -20.3308 
  57   2.0000      -0.741005       -20.1638 
  58   2.0000      -0.737076       -20.0569 
  59   2.0000      -0.733881       -19.9699 
  60   2.0000      -0.732037       -19.9197 
  61   2.0000      -0.730663       -19.8823 
  62   2.0000      -0.719058       -19.5666 
  63   2.0000      -0.715924       -19.4813 
  64   2.0000      -0.710157       -19.3244 
  65   2.0000      -0.705879       -19.2079 
  66   2.0000      -0.698445       -19.0057 
  67   2.0000      -0.687143       -18.6981 
  68   2.0000      -0.683170       -18.5900 
  69   2.0000      -0.658919       -17.9301 
  70   2.0000      -0.651927       -17.7398 
  71   2.0000      -0.628082       -17.0910 
  72   2.0000      -0.619029       -16.8446 
  73   2.0000      -0.613877       -16.7045 
  74   2.0000      -0.613361       -16.6904 
  75   2.0000      -0.605894       -16.4872 
  76   2.0000      -0.592614       -16.1259 
  77   2.0000      -0.464516       -12.6401 
  78   2.0000      -0.456407       -12.4195 
  79   2.0000      -0.451841       -12.2952 
  80   2.0000      -0.443390       -12.0652 
  81   0.0000      -0.038357        -1.0437 
  82   0.0000      -0.008155        -0.2219 
  83   0.0000      -0.005868        -0.1597 
  84   0.0000       0.007280         0.1981 
  85   0.0000       0.015017         0.4086 
  86   0.0000       0.015431         0.4199 
  87   0.0000       0.019867         0.5406 
  88   0.0000       0.032281         0.8784 
  89   0.0000       0.048754         1.3267 
  90   0.0000       0.055267         1.5039 
  91   0.0000       0.059080         1.6077 
  92   0.0000       0.064893         1.7658 
  93   0.0000       0.070809         1.9268 
  94   0.0000       0.076653         2.0858 
  95   0.0000       0.087930         2.3927 
  96   0.0000       0.092658         2.5214 
  97   0.0000       0.096861         2.6357 
  98   0.0000       0.103319         2.8115 
  99   0.0000       0.110203         2.9988 
 100   0.0000       0.115550         3.1443 
 101   0.0000       0.116836         3.1793 
 102   0.0000       0.123519         3.3611 
 103   0.0000       0.132417         3.6032 
 104   0.0000       0.137818         3.7502 
 105   0.0000       0.145890         3.9699 
 106   0.0000       0.153345         4.1727 
 107   0.0000       0.158338         4.3086 
 108   0.0000       0.173660         4.7255 
 109   0.0000       0.177899         4.8409 
 110   0.0000       0.181869         4.9489 
 111   0.0000       0.192849         5.2477 
 112   0.0000       0.199600         5.4314 
 113   0.0000       0.203578         5.5396 
 114   0.0000       0.204528         5.5655 
 115   0.0000       0.208020         5.6605 
 116   0.0000       0.217214         5.9107 
 117   0.0000       0.222158         6.0452 
 118   0.0000       0.225967         6.1489 
 119   0.0000       0.231685         6.3045 
 120   0.0000       0.234996         6.3946 
 121   0.0000       0.237915         6.4740 
 122   0.0000       0.241464         6.5706 
 123   0.0000       0.251174         6.8348 
 124   0.0000       0.253568         6.8999 
 125   0.0000       0.259395         7.0585 
 126   0.0000       0.262322         7.1382 
 127   0.0000       0.267128         7.2689 
 128   0.0000       0.273126         7.4321 
 129   0.0000       0.278438         7.5767 
 130   0.0000       0.282124         7.6770 
 131   0.0000       0.288494         7.8503 
 132   0.0000       0.295927         8.0526 
 133   0.0000       0.300418         8.1748 
 134   0.0000       0.313894         8.5415 
 135   0.0000       0.314953         8.5703 
 136   0.0000       0.318054         8.6547 
 137   0.0000       0.333162         9.0658 
 138   0.0000       0.333938         9.0869 
 139   0.0000       0.342647         9.3239 
 140   0.0000       0.345669         9.4061 
 141   0.0000       0.347416         9.4537 
 142   0.0000       0.357801         9.7363 
 143   0.0000       0.362847         9.8736 
 144   0.0000       0.365267         9.9394 
 145   0.0000       0.372090        10.1251 
 146   0.0000       0.377181        10.2636 
 147   0.0000       0.384219        10.4551 
 148   0.0000       0.384861        10.4726 
 149   0.0000       0.392958        10.6929 
 150   0.0000       0.397643        10.8204 
 151   0.0000       0.399005        10.8575 
 152   0.0000       0.402524        10.9532 
 153   0.0000       0.408608        11.1188 
 154   0.0000       0.413398        11.2491 
 155   0.0000       0.415782        11.3140 
 156   0.0000       0.418976        11.4009 
 157   0.0000       0.421470        11.4688 
 158   0.0000       0.428931        11.6718 
 159   0.0000       0.431922        11.7532 
 160   0.0000       0.436835        11.8869 
 161   0.0000       0.440606        11.9895 
 162   0.0000       0.445890        12.1333 
 163   0.0000       0.448349        12.2002 
 164   0.0000       0.454530        12.3684 
 165   0.0000       0.457827        12.4581 
 166   0.0000       0.462014        12.5720 
 167   0.0000       0.462598        12.5879 
 168   0.0000       0.470270        12.7967 
 169   0.0000       0.474648        12.9158 
 170   0.0000       0.476527        12.9670 
 171   0.0000       0.481539        13.1033 
 172   0.0000       0.483031        13.1439 
 173   0.0000       0.487956        13.2780 
 174   0.0000       0.490680        13.3521 
 175   0.0000       0.494674        13.4608 
 176   0.0000       0.500640        13.6231 
 177   0.0000       0.503953        13.7133 
 178   0.0000       0.506259        13.7760 
 179   0.0000       0.509625        13.8676 
 180   0.0000       0.513768        13.9803 
 181   0.0000       0.524691        14.2776 
 182   0.0000       0.535083        14.5603 
 183   0.0000       0.540788        14.7156 
 184   0.0000       0.547263        14.8918 
 185   0.0000       0.551392        15.0042 
 186   0.0000       0.558271        15.1913 
 187   0.0000       0.562994        15.3198 
 188   0.0000       0.567789        15.4503 
 189   0.0000       0.567892        15.4531 
 190   0.0000       0.574530        15.6338 
 191   0.0000       0.584672        15.9097 
 192   0.0000       0.586123        15.9492 
 193   0.0000       0.589269        16.0348 
 194   0.0000       0.595179        16.1957 
 195   0.0000       0.604437        16.4476 
 196   0.0000       0.612183        16.6584 
 197   0.0000       0.617710        16.8087 
 198   0.0000       0.623663        16.9707 
 199   0.0000       0.642885        17.4938 
 200   0.0000       0.647868        17.6294 
 201   0.0000       0.648665        17.6511 
 202   0.0000       0.656111        17.8537 
 203   0.0000       0.669667        18.2226 
 204   0.0000       0.673346        18.3227 
 205   0.0000       0.685390        18.6504 
 206   0.0000       0.696392        18.9498 
 207   0.0000       0.703713        19.1490 
 208   0.0000       0.717073        19.5126 
 209   0.0000       0.723743        19.6940 
 210   0.0000       0.727571        19.7982 
 211   0.0000       0.733759        19.9666 
 212   0.0000       0.743154        20.2222 
 213   0.0000       0.749102        20.3841 
 214   0.0000       0.752416        20.4743 
 215   0.0000       0.760448        20.6928 
 216   0.0000       0.765213        20.8225 
 217   0.0000       0.769480        20.9386 
 218   0.0000       0.773407        21.0455 
 219   0.0000       0.778106        21.1733 
 220   0.0000       0.787643        21.4328 
 221   0.0000       0.792304        21.5597 
 222   0.0000       0.798773        21.7357 
 223   0.0000       0.799530        21.7563 
 224   0.0000       0.810554        22.0563 
 225   0.0000       0.814185        22.1551 
 226   0.0000       0.821851        22.3637 
 227   0.0000       0.824949        22.4480 
 228   0.0000       0.829062        22.5599 
 229   0.0000       0.837133        22.7795 
 230   0.0000       0.840188        22.8627 
 231   0.0000       0.846973        23.0473 
 232   0.0000       0.849826        23.1249 
 233   0.0000       0.860041        23.4029 
 234   0.0000       0.868687        23.6382 
 235   0.0000       0.871452        23.7134 
 236   0.0000       0.872854        23.7516 
 237   0.0000       0.877740        23.8845 
 238   0.0000       0.886657        24.1272 
 239   0.0000       0.892323        24.2813 
 240   0.0000       0.900702        24.5093 
 241   0.0000       0.905248        24.6331 
 242   0.0000       0.910305        24.7707 
 243   0.0000       0.915163        24.9028 
 244   0.0000       0.924218        25.1492 
 245   0.0000       0.929600        25.2957 
 246   0.0000       0.932974        25.3875 
 247   0.0000       0.941146        25.6099 
 248   0.0000       0.948405        25.8074 
 249   0.0000       0.952461        25.9178 
 250   0.0000       0.956380        26.0244 
 251   0.0000       0.960509        26.1368 
 252   0.0000       0.976421        26.5698 
 253   0.0000       0.979494        26.6534 
 254   0.0000       0.986885        26.8545 
 255   0.0000       0.992862        27.0171 
 256   0.0000       0.995553        27.0904 
 257   0.0000       1.002714        27.2852 
 258   0.0000       1.012440        27.5499 
 259   0.0000       1.023783        27.8585 
 260   0.0000       1.034737        28.1566 
 261   0.0000       1.040899        28.3243 
 262   0.0000       1.049903        28.5693 
 263   0.0000       1.054188        28.6859 
 264   0.0000       1.062022        28.8991 
 265   0.0000       1.066315        29.0159 
 266   0.0000       1.066965        29.0336 
 267   0.0000       1.075725        29.2720 
 268   0.0000       1.077224        29.3127 
 269   0.0000       1.081565        29.4309 
 270   0.0000       1.092623        29.7318 
 271   0.0000       1.097999        29.8781 
 272   0.0000       1.102110        29.9899 
 273   0.0000       1.113254        30.2932 
 274   0.0000       1.118155        30.4265 
 275   0.0000       1.122102        30.5340 
 276   0.0000       1.128726        30.7142 
 277   0.0000       1.134216        30.8636 
 278   0.0000       1.143941        31.1282 
 279   0.0000       1.147734        31.2314 
 280   0.0000       1.152481        31.3606 
 281   0.0000       1.154828        31.4245 
 282   0.0000       1.159891        31.5622 
 283   0.0000       1.168223        31.7890 
 284   0.0000       1.172961        31.9179 
 285   0.0000       1.177914        32.0527 
 286   0.0000       1.190227        32.3877 
 287   0.0000       1.198580        32.6150 
 288   0.0000       1.200352        32.6632 
 289   0.0000       1.204375        32.7727 
 290   0.0000       1.211232        32.9593 
 291   0.0000       1.222632        33.2695 
 292   0.0000       1.225238        33.3404 
 293   0.0000       1.227592        33.4045 
 294   0.0000       1.235578        33.6218 
 295   0.0000       1.243539        33.8384 
 296   0.0000       1.253214        34.1017 
 297   0.0000       1.256846        34.2005 
 298   0.0000       1.265174        34.4271 
 299   0.0000       1.268786        34.5254 
 300   0.0000       1.279108        34.8063 
 301   0.0000       1.294263        35.2187 
 302   0.0000       1.298824        35.3428 
 303   0.0000       1.302180        35.4341 
 304   0.0000       1.307750        35.5857 
 305   0.0000       1.313634        35.7458 
 306   0.0000       1.322560        35.9887 
 307   0.0000       1.326553        36.0973 
 308   0.0000       1.337052        36.3830 
 309   0.0000       1.345558        36.6145 
 310   0.0000       1.358357        36.9628 
 311   0.0000       1.359020        36.9808 
 312   0.0000       1.365595        37.1597 
 313   0.0000       1.376264        37.4500 
 314   0.0000       1.379594        37.5407 
 315   0.0000       1.381833        37.6016 
 316   0.0000       1.387012        37.7425 
 317   0.0000       1.405610        38.2486 
 318   0.0000       1.406732        38.2791 
 319   0.0000       1.411508        38.4091 
 320   0.0000       1.417644        38.5761 
 321   0.0000       1.425637        38.7935 
 322   0.0000       1.431837        38.9623 
 323   0.0000       1.441615        39.2283 
 324   0.0000       1.447537        39.3895 
 325   0.0000       1.450120        39.4598 
 326   0.0000       1.453745        39.5584 
 327   0.0000       1.467832        39.9417 
 328   0.0000       1.471297        40.0360 
 329   0.0000       1.476691        40.1828 
 330   0.0000       1.478005        40.2186 
 331   0.0000       1.480627        40.2899 
 332   0.0000       1.491626        40.5892 
 333   0.0000       1.501369        40.8543 
 334   0.0000       1.505108        40.9561 
 335   0.0000       1.506300        40.9885 
 336   0.0000       1.515876        41.2491 
 337   0.0000       1.522375        41.4259 
 338   0.0000       1.526919        41.5496 
 339   0.0000       1.531652        41.6784 
 340   0.0000       1.533570        41.7306 
 341   0.0000       1.538719        41.8707 
 342   0.0000       1.545782        42.0629 
 343   0.0000       1.554071        42.2884 
 344   0.0000       1.563527        42.5457 
 345   0.0000       1.570048        42.7232 
 346   0.0000       1.574567        42.8462 
 347   0.0000       1.585410        43.1412 
 348   0.0000       1.591039        43.2944 
 349   0.0000       1.602042        43.5938 
 350   0.0000       1.606230        43.7078 
 351   0.0000       1.626616        44.2625 
 352   0.0000       1.630931        44.3799 
 353   0.0000       1.642028        44.6819 
 354   0.0000       1.644852        44.7587 
 355   0.0000       1.654371        45.0177 
 356   0.0000       1.663815        45.2747 
 357   0.0000       1.669010        45.4161 
 358   0.0000       1.673706        45.5439 
 359   0.0000       1.683420        45.8082 
 360   0.0000       1.686225        45.8845 
 361   0.0000       1.691398        46.0253 
 362   0.0000       1.699602        46.2485 
 363   0.0000       1.715777        46.6887 
 364   0.0000       1.718257        46.7561 
 365   0.0000       1.725042        46.9408 
 366   0.0000       1.735343        47.2211 
 367   0.0000       1.743524        47.4437 
 368   0.0000       1.747653        47.5561 
 369   0.0000       1.752766        47.6952 
 370   0.0000       1.761110        47.9222 
 371   0.0000       1.770910        48.1889 
 372   0.0000       1.774704        48.2921 
 373   0.0000       1.790099        48.7111 
 374   0.0000       1.797267        48.9061 
 375   0.0000       1.804432        49.1011 
 376   0.0000       1.811458        49.2923 
 377   0.0000       1.823129        49.6099 
 378   0.0000       1.834264        49.9129 
 379   0.0000       1.842415        50.1347 
 380   0.0000       1.853691        50.4415 
 381   0.0000       1.860796        50.6348 
 382   0.0000       1.872816        50.9619 
 383   0.0000       1.874699        51.0131 
 384   0.0000       1.883605        51.2555 
 385   0.0000       1.887480        51.3609 
 386   0.0000       1.905237        51.8441 
 387   0.0000       1.908494        51.9328 
 388   0.0000       1.919927        52.2439 
 389   0.0000       1.933506        52.6134 
 390   0.0000       1.941398        52.8281 
 391   0.0000       1.949589        53.0510 
 392   0.0000       1.956181        53.2304 
 393   0.0000       1.961597        53.3778 
 394   0.0000       1.973577        53.7038 
 395   0.0000       1.976495        53.7832 
 396   0.0000       1.994714        54.2789 
 397   0.0000       2.008782        54.6617 
 398   0.0000       2.015070        54.8328 
 399   0.0000       2.034537        55.3626 
 400   0.0000       2.049252        55.7630 
 401   0.0000       2.062217        56.1158 
 402   0.0000       2.080731        56.6196 
 403   0.0000       2.088831        56.8400 
 404   0.0000       2.107206        57.3400 
 405   0.0000       2.112661        57.4884 
 406   0.0000       2.128232        57.9121 
 407   0.0000       2.143055        58.3155 
 408   0.0000       2.151670        58.5499 
 409   0.0000       2.153626        58.6031 
 410   0.0000       2.169544        59.0363 
 411   0.0000       2.178354        59.2760 
 412   0.0000       2.190850        59.6161 
 413   0.0000       2.195081        59.7312 
 414   0.0000       2.200467        59.8778 
 415   0.0000       2.211457        60.1768 
 416   0.0000       2.217640        60.3451 
 417   0.0000       2.232075        60.7379 
 418   0.0000       2.232326        60.7447 
 419   0.0000       2.242580        61.0237 
 420   0.0000       2.249961        61.2245 
 421   0.0000       2.267314        61.6968 
 422   0.0000       2.279900        62.0392 
 423   0.0000       2.288939        62.2852 
 424   0.0000       2.304099        62.6977 
 425   0.0000       2.313511        62.9538 
 426   0.0000       2.333306        63.4925 
 427   0.0000       2.350452        63.9590 
 428   0.0000       2.364283        64.3354 
 429   0.0000       2.368561        64.4518 
 430   0.0000       2.373651        64.5903 
 431   0.0000       2.377825        64.7039 
 432   0.0000       2.392764        65.1104 
 433   0.0000       2.407971        65.5242 
 434   0.0000       2.423239        65.9397 
 435   0.0000       2.447445        66.5984 
 436   0.0000       2.464562        67.0641 
 437   0.0000       2.467179        67.1354 
 438   0.0000       2.476938        67.4009 
 439   0.0000       2.488148        67.7059 
 440   0.0000       2.500580        68.0442 
 441   0.0000       2.521678        68.6183 
 442   0.0000       2.525496        68.7222 
 443   0.0000       2.537886        69.0594 
 444   0.0000       2.549403        69.3728 
 445   0.0000       2.562249        69.7224 
 446   0.0000       2.568936        69.9043 
 447   0.0000       2.577409        70.1349 
 448   0.0000       2.589535        70.4648 
 449   0.0000       2.597040        70.6691 
 450   0.0000       2.602924        70.8292 
 451   0.0000       2.619314        71.2752 
 452   0.0000       2.622387        71.3588 
 453   0.0000       2.626608        71.4736 
 454   0.0000       2.636478        71.7422 
 455   0.0000       2.640795        71.8597 
 456   0.0000       2.646283        72.0090 
 457   0.0000       2.660780        72.4035 
 458   0.0000       2.661654        72.4273 
 459   0.0000       2.680360        72.9363 
 460   0.0000       2.688847        73.1672 
 461   0.0000       2.694667        73.3256 
 462   0.0000       2.705083        73.6090 
 463   0.0000       2.721156        74.0464 
 464   0.0000       2.729994        74.2869 
 465   0.0000       2.745758        74.7159 
 466   0.0000       2.754488        74.9534 
 467   0.0000       2.761866        75.1542 
 468   0.0000       2.781898        75.6993 
 469   0.0000       2.795375        76.0660 
 470   0.0000       2.810336        76.4731 
 471   0.0000       2.819278        76.7165 
 472   0.0000       2.821492        76.7767 
 473   0.0000       2.831789        77.0569 
 474   0.0000       2.841152        77.3117 
 475   0.0000       2.844465        77.4018 
 476   0.0000       2.856640        77.7331 
 477   0.0000       2.875932        78.2581 
 478   0.0000       2.882851        78.4464 
 479   0.0000       2.885772        78.5258 
 480   0.0000       2.892714        78.7147 
 481   0.0000       2.904446        79.0340 
 482   0.0000       2.906237        79.0827 
 483   0.0000       2.912382        79.2499 
 484   0.0000       2.914218        79.2999 
 485   0.0000       2.924865        79.5896 
 486   0.0000       2.932747        79.8041 
 487   0.0000       2.938826        79.9695 
 488   0.0000       2.949648        80.2640 
 489   0.0000       2.951511        80.3147 
 490   0.0000       2.955735        80.4296 
 491   0.0000       2.958548        80.5062 
 492   0.0000       2.962412        80.6113 
 493   0.0000       2.973867        80.9230 
 494   0.0000       2.986991        81.2802 
 495   0.0000       2.990278        81.3696 
 496   0.0000       3.006428        81.8091 
 497   0.0000       3.012441        81.9727 
 498   0.0000       3.014878        82.0390 
 499   0.0000       3.020383        82.1888 
 500   0.0000       3.025968        82.3408 
 501   0.0000       3.032825        82.5274 
 502   0.0000       3.042099        82.7797 
 503   0.0000       3.045542        82.8734 
 504   0.0000       3.058354        83.2220 
 505   0.0000       3.063112        83.3515 
 506   0.0000       3.067493        83.4707 
 507   0.0000       3.071503        83.5798 
 508   0.0000       3.081534        83.8528 
 509   0.0000       3.094504        84.2057 
 510   0.0000       3.101775        84.4036 
 511   0.0000       3.108428        84.5846 
 512   0.0000       3.118119        84.8483 
 513   0.0000       3.125516        85.0496 
 514   0.0000       3.128157        85.1215 
 515   0.0000       3.133120        85.2565 
 516   0.0000       3.138744        85.4096 
 517   0.0000       3.143020        85.5259 
 518   0.0000       3.149979        85.7153 
 519   0.0000       3.158669        85.9518 
 520   0.0000       3.164353        86.1064 
 521   0.0000       3.172932        86.3399 
 522   0.0000       3.184059        86.6427 
 523   0.0000       3.195748        86.9607 
 524   0.0000       3.196572        86.9832 
 525   0.0000       3.201746        87.1239 
 526   0.0000       3.207723        87.2866 
 527   0.0000       3.215568        87.5001 
 528   0.0000       3.217518        87.5531 
 529   0.0000       3.223291        87.7102 
 530   0.0000       3.229284        87.8733 
 531   0.0000       3.236040        88.0571 
[...]
sum of PNO error estimates for the kept pairs         ...      -0.011724265985 Eh
                                                          --------------------
sum of all corrections                                         -0.028192842878
Initial total correlation energy                               -3.746158890846
Thresholds for map construction and integral transformation for fine MP2 and CCSD(T) calculation:
   TCutMKN   ...     1.0e-03
   TCutDO    ...     1.0e-02
   TCutPairs ...     1.0e-04
   TCutCMO   ...     1.0e-03
   TCutCPAO  ...     1.0e-03

Thresholds for map construction and integral transformation for strong Triples:
   TCutMKN   ...     1.0e-02
   TCutDO    ...     2.0e-02
   TCutCMO   ...     1.0e-03
   TCutCPAO  ...     1.0e-03

Thresholds for map construction and integral transformation for weak Triples:
   TCutMKN   ...     1.0e-01
   TCutDO    ...     4.0e-02
   TCutCMO   ...     1.0e-03
   TCutCPAO  ...     1.0e-03

--------------------------------
LOCAL RI TRANSFORMATION (IAVPAO)
--------------------------------

Orbital window:      22 to 80
Number of PAOs:     948
Basis functions:    948 (356 shells)
Aux. functions:    2242 (674 shells)
Use SHARK:           on

Processing maps (0.0 sec)
Average map sizes:
   Aux shells -> MOs              47.3
   Aux shells -> PAOs            948.0
   MOs        -> AO shells       290.6
   PAOs       -> AO shells       336.3

Calculating integrals (6.1 sec, 769.176 MB)
Sorting integrals (0.8 sec, 769.151 MB)
Total time for the integral transformation: 7.0 sec
--------------------------------
INITIAL GUESS AND PNO GENERATION
--------------------------------

PNO truncation parameters                   .... 
    PAOOverlapThresh   =        1.000e-08

    TCutPairs          =        1.000e-04
    TCutPNO            =        3.330e-07
    TCutPNOSingles     =        9.990e-09
    TCutMP2Pairs       =        1.000e-05
    TCutMKN            =        1.000e-03
    TCutDO             =        1.000e-02

Pair selection                          .... not used
Type of local MP2 treatment                 .... semi-local MP2
Strategy for PNO selection                  .... occupation number selection
Pair density normalization                  .... MP2 norm
Spin component scaling                      .... not used

   .... Finished loop over pairs

 PNO Occupation Number Statistics: 
  | Av. % of trace(Dij) retained        ...  97.361179817890
  | sigma^2 in % of trace(Dij) retained ...   7.17e+00
  | Av. % of trace(Di) retained         ...  99.998954567975
  | sigma^2 in % of trace(Di) retained  ...   1.50e-07
 Distributions of % trace(Dij) recovered:
  |       >= 99.9  ...   175 ( 16.8 % of all pairs)
  |   [70.0, 80.0) ...     1 (  0.1 % of all pairs)
  |   [80.0, 90.0) ...    17 (  1.6 % of all pairs)
  |   [90.0, 99.0) ...   636 ( 61.0 % of all pairs)
  |   [99.0, 99.9) ...   214 ( 20.5 % of all pairs)
 Distributions of % trace(Di) recovered :
  |       >= 99.9  ...    59 (100.0 % of all I-pairs )

Making pair pair interaction lists          ... done

                       ===========================
                        635 OF 1043 PAIRS ARE KEPT
                       ===========================

Total time spent in the initial guess                 ...    51.035 sec
SL-MP2 correlation energy (all non-screened pairs)    ...      -3.747408702221 Eh

Initial PNO correlation energy                        ...      -3.720692759053 Eh
sum of pair energies estimated for screened out pairs ...      -0.001590890132 Eh
sum of MP2 pair energies for pairs that were not kept ...      -0.014900154983 Eh
sum of PNO error estimates for the kept pairs         ...      -0.011815788185 Eh
                                                          --------------------
sum of all corrections                                         -0.028306833300
Initial total correlation energy                               -3.748999592353
Thresholds for map construction and integral transformation for fine MP2 and CCSD(T) calculation:
   TCutMKN   ...     1.0e-03
   TCutDO    ...     1.0e-02
   TCutPairs ...     1.0e-04
   TCutCMO   ...     1.0e-03
   TCutCPAO  ...     1.0e-03

Time for aux screen maps:            0.009
Time for maps after fine MP2:            0.045
-----------------------------
LOCAL RI TRANSFORMATION (IJV)
-----------------------------

Orbital window:      22 to 80
Basis functions:    948 (356 shells)
Aux. functions:    2242 (674 shells)
Use SHARK:           on

Processing maps (0.0 sec)
Average map sizes:
   Aux shells -> MOs(i)           39.1
   Aux shells -> MOs(j)           59.0
   MOs        -> AO shells       290.6

Calculating integrals (4.5 sec, 39.761 MB)
Sorting integrals (0.1 sec, 39.736 MB)
Total time for the integral transformation: 4.6 sec
--------------------------------
LOCAL RI TRANSFORMATION (VABPAO)
--------------------------------

Number of PAOs:     948
Basis functions:    948 (356 shells)
Aux. functions:    2242 (674 shells)
Use SHARK:           on

Processing maps (0.0 sec)
Average map sizes:
   Aux shells -> PAOs            863.9
   PAOs       -> AO shells       336.3

Calculating integrals (39.6 sec, 13014.276 MB)
Finished


-------------------------------------
Pair Pair Term precalculation with     
RI-(ij|mn) and (im|jn) transformation  
ON THE FLY                             
-------------------------------------

   IBatch   1 (of   7)              ... done (   30.390 sec)
   IBatch   2 (of   7)              ... done (   33.130 sec)
   IBatch   3 (of   7)              ... done (   31.240 sec)
   IBatch   4 (of   7)              ... done (   45.447 sec)
   IBatch   5 (of   7)              ... done (   44.891 sec)
   IBatch   6 (of   7)              ... done (   62.405 sec)
   IBatch   7 (of   7)              ... done (   49.674 sec)
Total EXT                           ...         297.177 sec

---------------------
RI-PNO TRANSFORMATION
---------------------

Total Number of PNOs                   ... 20253
Average number of PNOs per pair        ...    31
Maximal number of PNOs per pair        ...    81
   #pairs with  1 -  5 PNOs   :    0
   #pairs with  6 - 10 PNOs   :   34
   #pairs with 11 - 15 PNOs   :   88
   #pairs with 16 - 20 PNOs   :   88
   #pairs with 21 - 25 PNOs   :   57
   #pairs with 26 - 30 PNOs   :   50
   #pairs with 31 - 35 PNOs   :   87
   #pairs with 36 - 40 PNOs   :   43
   #pairs with 41 - 45 PNOs   :   48
   #pairs with 46 - 50 PNOs   :   45
   #pairs with 51 - 55 PNOs   :   32
   #pairs with 56 - 60 PNOs   :   21
   #pairs with 61 - 65 PNOs   :    9
   #pairs with 66 - 70 PNOs   :    4
   #pairs with 71 - 75 PNOs   :   16
   #pairs with 76 - 80 PNOs   :   10
   #pairs with 81 - 85 PNOs   :    3

Generation of (ij|ab)[P] integrals            ... on
Generation of (ia|bc)[P],(ja|bc)[P] integrals ... on
Storage of 3 and 4 external integrals         ... on
Generation of ALL (ka|bc)[P] integrals        ... on
Keep RI integrals in memory                   ... off

Ibatch:  1 (of  1)
Starting 2-4 index PNO integral generation ... done

Timings:
Total PNO integral transformation time     ...        137.265 sec
Size of the 3-external file                ...       319 MB
Size of the 4-external file                ...      2257 MB
Size of the IKJL file                      ...         0 MB
Size of the all 3-external file            ...      7838 MB
Size of the 1-external file                ...        22 MB

Making pair/pair overlap matrices          ... done (   28.294 sec)
Size of the pair overlap file              ... 2096 MB
Redoing the guess amplitudes               ... done (    0.053 sec)

-------------------------
FINAL STARTUP INFORMATION
-------------------------

E(0)                                       ...  -1082.679007112
E(SL-MP2)                                  ...     -3.747408702
E(SL-MP2) including corrections            ...     -3.748999592
Initial E(tot)                             ...  -1086.428006704
<T|T>                                      ...      0.993408668
Number of pairs included                   ... 635
Total number of pairs                      ... 1770

------------------------------------------------
                  RHF COUPLED CLUSTER ITERATIONS
------------------------------------------------

Number of PNO amplitudes to be optimized   ...       835189
Number of non-PNO amplitudes               ...    477322515
Untruncated number of regular amplitudes   ...   1330489530

Iter       E(tot)           E(Corr)          Delta-E          Residual     Time
  0  -1086.428186842     -3.720872897      0.026535805      0.019818951   35.25
                           *** Turning on DIIS ***
  1  -1086.549991883     -3.842677938     -0.121805041      0.012726268   33.97
  2  -1086.637599890     -3.930285945     -0.087608007      0.003230512   34.34
  3  -1086.653648640     -3.946334696     -0.016048751      0.001911134   35.58
  4  -1086.658433576     -3.951119631     -0.004784935      0.001023968   34.73
  5  -1086.659866517     -3.952552572     -0.001432941      0.000442557   34.86
  6  -1086.660230327     -3.952916382     -0.000363810      0.000157565   34.03
  7  -1086.660286810     -3.952972865     -0.000056483      0.000085590   34.28
  8  -1086.660309805     -3.952995860     -0.000022995      0.000054647   34.53
  9  -1086.660297091     -3.952983147      0.000012713      0.000033750   35.48
 10  -1086.660301360     -3.952987416     -0.000004269      0.000016235   35.29
 11  -1086.660299487     -3.952985542      0.000001873      0.000005367   34.57
 12  -1086.660299843     -3.952985898     -0.000000356      0.000001545   35.03
 13  -1086.660299523     -3.952985579      0.000000319      0.000000491   34.31
               --- The Coupled-Cluster iterations have converged ---

----------------------
COUPLED CLUSTER ENERGY
----------------------

E(0)                                       ...  -1082.679007112
E(CORR)(strong-pairs)                      ...     -3.952985579
E(CORR)(weak-pairs)                        ...     -0.028306833
E(CORR)(corrected)                         ...     -3.981292412
E(TOT)                                     ...  -1086.660299523
Singles Norm <S|S>**1/2                    ...      0.108161728  
T1 diagnostic                              ...      0.009957094  

------------------
LARGEST AMPLITUDES
------------------
  58-> 83  58-> 83       0.053166
  61-> 81  61-> 81       0.052419
  59-> 81  59-> 81       0.052160
  60-> 81  60-> 81       0.052034
  47-> 81  47-> 81       0.051708
  37-> 83  37-> 83       0.049953
  33-> 81  33-> 81       0.049521
  34-> 81  34-> 81       0.048715
  65-> 81  65-> 81       0.043716
  80-> 81  80-> 81       0.042318
  35-> 83  35-> 83       0.040941
  48-> 81  48-> 81       0.038963
  67-> 84  67-> 84       0.038939
  74-> 85  74-> 85       0.038920
  73-> 85  73-> 85       0.038545
  75-> 85  75-> 85       0.038183


-------------------------------------------
DLPNO BASED TRIPLES CORRECTION
-------------------------------------------

Singles multiplier          ...  1.000000
TCutTNO                     ... 1.000e-09
TCutMP2Pairs                ... 1.000e-05
TCutDOStrong                ... 2.000e-02
TCutMKNStrong               ... 1.000e-02
TCutDOWeak                  ... 4.000e-02
TCutMKNWeak                 ... 1.000e-01

Fragment selection                          .... not used
Fock matrix occ-virt block is zero --> Setting DT_in_Triples to false.
Number of Triples that are to be computed   ...      6639

 . . . . . . . . .
10% done               (    131.857 sec)
 . . . . . . . . .
20% done               (    147.608 sec)
 . . . . . . . . .
30% done  
40% done               (    159.628 sec)
 . . . . . . . . .
50% done  
60% done  
70% done               (    212.543 sec)
 . . . . . . . . .
80% done  
90% done               (    109.337 sec)
Triples timings:
Total time for T0               ...   832.570 sec
Total time for Iterative (T)    ...     0.000 sec
Total time of overall (T)       ...   907.127 sec

Triples List generation         ...     0.000 sec
TNO generation                  ...    71.520 sec
Pair density generation         ...     0.043 sec
Look up tables                  ...     0.000 sec
Generating 3-index integrals    ...   536.724 sec
  Make 4-ind.int. from 3-ind.int...    38.740 sec
  Projecting amplitudes (D + S) ...   139.260 sec
  Downprojecting integrals      ...     0.005 sec
  Energy contr. (sum over a,b,c)...     8.620 sec
Fitting ET(->0)                 ...     0.000 sec

Everything after 3-index        ...   224.251 sec

Timing details:
 TNO integrals                  ...   572.841 sec
   Reading 3-index integrals    ...    23.644 sec
   Sorting integrals            ...    63.864 sec
       Sorting integrals 1      ...     0.005 sec
       Sorting integrals 2      ...    54.330 sec
       Sorting integrals 3      ...     1.874 sec
       Sorting integrals 4      ...     0.175 sec
       Sorting integrals 5      ...     0.695 sec
       Sorting integrals 6      ...     6.786 sec
   Calculating local VM**-1/2   ...     2.060 sec
   Orthogonal. integrals        ...     4.044 sec
   Multipl. 3-index integrals   ...   479.228 sec
   All concerning IRIab (w/TNO) ...    24.088 sec

 Calculate W0/W1                ...    37.599 sec
 W 3-ext contribution           ...    22.083 sec
 W 3-int contribution           ...     8.392 sec
 Sorting W                      ...     6.431 sec

 V exchange contribution        ...     3.495 sec

 Timings for Triples without generation
     of 3-index integrals       ...   224.234 sec
       0 weak pairs             ...   162.558 sec
       1 weak pair              ...    61.676 sec
       2 weak pairs             ...     0.000 sec
       3 weak pairs             ...     0.000 sec
  Extra time for extrapolation  ...     0.000 sec

Number of Triples   (0, 1, 2, 3 weak pairs; overall):   3916    2723       0       0  (  6639)
Number of Atoms     (0, 1, 2, 3 weak pairs; overall):   16.8    14.4     0.0     0.0  (    41)
Number of PAOs      (0, 1, 2, 3 weak pairs; overall):  417.8   372.8     0.0     0.0  (   948)
Number of AuxFcns   (0, 1, 2, 3 weak pairs; overall):  499.3   369.7     0.0     0.0  (  2242)
Number of TNOs      (0, 1, 2, 3 weak pairs         ):   86.1    60.5     0.0     0.0
Aver. Number of NTNO, Atoms, PAOs, AuxFcns / Triples:   6639    75.6    15.8   399.3   446.2

Triples Correction (T)                     ...     -0.169171456
Final correlation energy                   ...     -4.150463868
E(CCSD)                                    ...  -1086.660299523
E(CCSD(T))                                 ...  -1086.829470979



--------------------------------------------------------------------------------
                                    TIMINGS
--------------------------------------------------------------------------------


Total execution time                   ...     2242.082 sec

Localization of occupied MO's          ...        3.075 sec (  0.1%)
Fock Matrix Formation                  ...      160.206 sec (  7.1%)
Global overlap, Fock, MKN matrices     ...        1.212 sec (  0.1%)
Differential overlap integrals         ...        3.206 sec (  0.1%)
Organizing maps                        ...        0.133 sec (  0.0%)
RI 3-index integral generations        ...       58.674 sec (  2.6%)
RI-PNO integral transformation         ...      533.370 sec ( 23.8%)
Initial Guess                          ...       87.844 sec (  3.9%)
DIIS Solver                            ...        1.909 sec (  0.1%)
State Vector Update                    ...        0.163 sec (  0.0%)
Sigma-vector construction              ...      484.199 sec ( 21.6%)
  <0|H|D>                              ...        0.002 sec (  0.0% of sigma)
  <D|H|D>(0-ext)                       ...       33.953 sec (  7.0% of sigma)
  <D|H|D>(2-ext Fock)                  ...        0.075 sec (  0.0% of sigma)
  <D|H|D>(2-ext)                       ...       72.208 sec ( 14.9% of sigma)
  <D|H|D>(4-ext)                       ...       24.054 sec (  5.0% of sigma)
  <D|H|D>(4-ext-corr)                  ...      141.165 sec ( 29.2% of sigma)
  CCSD doubles correction              ...        1.415 sec (  0.3% of sigma)
  <S|H|S>                              ...        3.570 sec (  0.7% of sigma)
  <S|H|D>(1-ext)                       ...        3.634 sec (  0.8% of sigma)
  <D|H|S>(1-ext)                       ...        0.076 sec (  0.0% of sigma)
  <S|H|D>(3-ext)                       ...        0.767 sec (  0.2% of sigma)
  CCSD singles correction              ...        0.002 sec (  0.0% of sigma)
  Fock-dressing                        ...       76.574 sec ( 15.8% of sigma)
  Singles amplitudes                   ...        5.101 sec (  1.1% of sigma)
  (ik|jl)-dressing                     ...       33.691 sec (  7.0% of sigma)
  (ij|ab),(ia|jb)-dressing             ...        9.847 sec (  2.0% of sigma)
  Pair energies                        ...        0.024 sec (  0.0% of sigma)
Total Time for computing (T)           ...      907.137 sec ( 40.5% of ALL)


Maximum memory used throughout the entire MDCI-calculation: 3448.4 MB

-------------------------   --------------------
FINAL SINGLE POINT ENERGY     -1086.829470979294
-------------------------   --------------------


                            ***************************************
                            *     ORCA property calculations      *
                            ***************************************


  WARNING: The energy has been calculated at the MDCI level but the densities
           used in the property calculations are still SCF densities
           MDCI response densities have not been calculated 
           use %mdci Density linearized end
           or  %mdci Density unrelaxed end
           or  %mdci Density orbopt end

                                    ---------------------
                                    Active property flags
                                    ---------------------
   (+) Dipole Moment


------------------------------------------------------------------------------
                       ORCA ELECTRIC PROPERTIES CALCULATION
------------------------------------------------------------------------------

Dipole Moment Calculation                       ... on
Quadrupole Moment Calculation                   ... off
Polarizability Calculation                      ... off
GBWName                                         ... Fluoxetine_1.gbw
Electron density                                ... Fluoxetine_1.scfp
The origin for moment calculation is the CENTER OF MASS  = ( 0.046588,  0.019093  0.028976)

-------------
DIPOLE MOMENT
-------------
                                X             Y             Z
Electronic contribution:     46.17533      -5.57865       1.80370
Nuclear contribution   :    -52.60680       8.54790      -2.17666
                        -----------------------------------------
Total Dipole Moment    :     -6.43147       2.96925      -0.37296
                        -----------------------------------------
Magnitude (a.u.)       :      7.09361
Magnitude (Debye)      :     18.03053



--------------------
Rotational spectrum 
--------------------
 
Rotational constants in cm-1:     0.014988     0.004683     0.004056 
Rotational constants in MHz :   449.317965   140.395833   121.605989 

 Dipole components along the rotational axes: 
x,y,z [a.u.] :     6.356154     3.143842    -0.186789 
x,y,z [Debye]:    16.156059     7.991011    -0.474780 

 

Timings for individual modules:

Sum of individual times         ...     3686.929 sec (=  61.449 min)
GTO integral calculation        ...        2.901 sec (=   0.048 min)   0.1 %
SCF iterations                  ...     1439.565 sec (=  23.993 min)  39.0 %
MDCI module                     ...     2244.462 sec (=  37.408 min)  60.9 %
                             ****ORCA TERMINATED NORMALLY****
TOTAL RUN TIME: 0 days 1 hours 1 minutes 28 seconds 756 msec
