
Lmod is automatically replacing "intel/2020.1.217" with "gcc/10.3.0".


Due to MODULEPATH changes, the following have been reloaded:
  1) blis/0.8.1     2) flexiblas/3.0.4

The following have been reloaded with a version change:
  1) gcccore/.9.3.0 => gcccore/.10.3.0        3) openmpi/4.0.3 => openmpi/4.1.1
  2) libfabric/1.10.1 => libfabric/1.12.1     4) ucx/1.8.0 => ucx/1.9.0

To execute ORCA, run: 
   ${EBROOTORCA}/orca orca.inp > orca.out

                                 *****************
                                 * O   R   C   A *
                                 *****************

                                            #,                                       
                                            ###                                      
                                            ####                                     
                                            #####                                    
                                            ######                                   
                                           ########,                                 
                                     ,,################,,,,,                         
                               ,,#################################,,                 
                          ,,##########################################,,             
                       ,#########################################, ''#####,          
                    ,#############################################,,   '####,        
                  ,##################################################,,,,####,       
                ,###########''''           ''''###############################       
              ,#####''   ,,,,##########,,,,          '''####'''          '####       
            ,##' ,,,,###########################,,,                        '##       
           ' ,,###''''                  '''############,,,                           
         ,,##''                                '''############,,,,        ,,,,,,###''
      ,#''                                            '''#######################'''  
     '                                                          ''''####''''         
             ,#######,   #######,   ,#######,      ##                                
            ,#'     '#,  ##    ##  ,#'     '#,    #''#        ######   ,####,        
            ##       ##  ##   ,#'  ##            #'  '#       #        #'  '#        
            ##       ##  #######   ##           ,######,      #####,   #    #        
            '#,     ,#'  ##    ##  '#,     ,#' ,#      #,         ##   #,  ,#        
             '#######'   ##     ##  '#######'  #'      '#     #####' # '####'        



                  #######################################################
                  #                        -***-                        #
                  #          Department of theory and spectroscopy      #
                  #    Directorship and core code : Frank Neese         #
                  #        Max Planck Institute fuer Kohlenforschung    #
                  #                Kaiser Wilhelm Platz 1               #
                  #                 D-45470 Muelheim/Ruhr               #
                  #                      Germany                        #
                  #                                                     #
                  #                  All rights reserved                #
                  #                        -***-                        #
                  #######################################################


                         Program Version 5.0.3 -  RELEASE  -


 With contributions from (in alphabetic order):
   Daniel Aravena         : Magnetic Suceptibility
   Michael Atanasov       : Ab Initio Ligand Field Theory (pilot matlab implementation)
   Alexander A. Auer      : GIAO ZORA, VPT2 properties, NMR spectrum
   Ute Becker             : Parallelization
   Giovanni Bistoni       : ED, misc. LED, open-shell LED, HFLD
   Martin Brehm           : Molecular dynamics
   Dmytro Bykov           : SCF Hessian
   Vijay G. Chilkuri      : MRCI spin determinant printing, contributions to CSF-ICE
   Dipayan Datta          : RHF DLPNO-CCSD density
   Achintya Kumar Dutta   : EOM-CC, STEOM-CC
   Dmitry Ganyushin       : Spin-Orbit,Spin-Spin,Magnetic field MRCI
   Miquel Garcia          : C-PCM and meta-GGA Hessian, CC/C-PCM, Gaussian charge scheme
   Yang Guo               : DLPNO-NEVPT2, F12-NEVPT2, CIM, IAO-localization
   Andreas Hansen         : Spin unrestricted coupled pair/coupled cluster methods
   Benjamin Helmich-Paris : MC-RPA, TRAH-SCF, COSX integrals
   Lee Huntington         : MR-EOM, pCC
   Robert Izsak           : Overlap fitted RIJCOSX, COSX-SCS-MP3, EOM
   Marcus Kettner         : VPT2
   Christian Kollmar      : KDIIS, OOCD, Brueckner-CCSD(T), CCSD density, CASPT2, CASPT2-K
   Simone Kossmann        : Meta GGA functionals, TD-DFT gradient, OOMP2, MP2 Hessian
   Martin Krupicka        : Initial AUTO-CI
   Lucas Lang             : DCDCAS
   Marvin Lechner         : AUTO-CI (C++ implementation), FIC-MRCC
   Dagmar Lenk            : GEPOL surface, SMD
   Dimitrios Liakos       : Extrapolation schemes; Compound Job, initial MDCI parallelization
   Dimitrios Manganas     : Further ROCIS development; embedding schemes
   Dimitrios Pantazis     : SARC Basis sets
   Anastasios Papadopoulos: AUTO-CI, single reference methods and gradients
   Taras Petrenko         : DFT Hessian,TD-DFT gradient, ASA, ECA, R-Raman, ABS, FL, XAS/XES, NRVS
   Peter Pinski           : DLPNO-MP2, DLPNO-MP2 Gradient
   Christoph Reimann      : Effective Core Potentials
   Marius Retegan         : Local ZFS, SOC
   Christoph Riplinger    : Optimizer, TS searches, QM/MM, DLPNO-CCSD(T), (RO)-DLPNO pert. Triples
   Tobias Risthaus        : Range-separated hybrids, TD-DFT gradient, RPA, STAB
   Michael Roemelt        : Original ROCIS implementation
   Masaaki Saitow         : Open-shell DLPNO-CCSD energy and density
   Barbara Sandhoefer     : DKH picture change effects
   Avijit Sen             : IP-ROCIS
   Kantharuban Sivalingam : CASSCF convergence, NEVPT2, FIC-MRCI
   Bernardo de Souza      : ESD, SOC TD-DFT
   Georgi Stoychev        : AutoAux, RI-MP2 NMR, DLPNO-MP2 response
   Willem Van den Heuvel  : Paramagnetic NMR
   Boris Wezisla          : Elementary symmetry handling
   Frank Wennmohs         : Technical directorship


 We gratefully acknowledge several colleagues who have allowed us to
 interface, adapt or use parts of their codes:
   Stefan Grimme, W. Hujo, H. Kruse, P. Pracht,  : VdW corrections, initial TS optimization,
                  C. Bannwarth, S. Ehlert          DFT functionals, gCP, sTDA/sTD-DF
   Ed Valeev, F. Pavosevic, A. Kumar             : LibInt (2-el integral package), F12 methods
   Garnet Chan, S. Sharma, J. Yang, R. Olivares  : DMRG
   Ulf Ekstrom                                   : XCFun DFT Library
   Mihaly Kallay                                 : mrcc  (arbitrary order and MRCC methods)
   Jiri Pittner, Ondrej Demel                    : Mk-CCSD
   Frank Weinhold                                : gennbo (NPA and NBO analysis)
   Christopher J. Cramer and Donald G. Truhlar   : smd solvation model
   Lars Goerigk                                  : TD-DFT with DH, B97 family of functionals
   V. Asgeirsson, H. Jonsson                     : NEB implementation
   FAccTs GmbH                                   : IRC, NEB, NEB-TS, DLPNO-Multilevel, CI-OPT
                                                   MM, QMMM, 2- and 3-layer-ONIOM, Crystal-QMMM,
                                                   LR-CPCM, SF, NACMEs, symmetry and pop. for TD-DFT,
                                                   nearIR, NL-DFT gradient (VV10), updates on ESD,
                                                   ML-optimized integration grids
   S Lehtola, MJT Oliveira, MAL Marques          : LibXC Library
   Liviu Ungur et al                             : ANISO software


 Your calculation uses the libint2 library for the computation of 2-el integrals
 For citations please refer to: http://libint.valeyev.net

 Your ORCA version has been built with support for libXC version: 5.1.0
 For citations please refer to: https://tddft.org/programs/libxc/

 This ORCA versions uses:
   CBLAS   interface :  Fast vector & matrix operations
   LAPACKE interface :  Fast linear algebra routines
   SCALAPACK package :  Parallel linear algebra routines
   Shared memory     :  Shared parallel matrices
   BLAS/LAPACK       :  OpenBLAS 0.3.15  USE64BITINT DYNAMIC_ARCH NO_AFFINITY Zen SINGLE_THREADED
        Core in use  :  Zen
   Copyright (c) 2011-2014, The OpenBLAS Project


================================================================================

----- Orbital basis set information -----
Your calculation utilizes the basis: def2-TZVPP
   F. Weigend and R. Ahlrichs, Phys. Chem. Chem. Phys. 7, 3297 (2005).

----- AuxC basis set information -----
Your calculation utilizes the auxiliary basis: def2-TZVPP/C
  H-La, Hf-Rn : A. Hellweg, C. Hattig, S. Hofener and W. Klopper, Theor. Chem. Acc. 117, 587 (2007).
        Ce-Lu : J. Chmela and M. E. Harding, Mol. Phys. (2018).

================================================================================
                                        WARNINGS
                       Please study these warnings very carefully!
================================================================================


WARNING: Post HF methods need fully converged wavefunctions
  ===> : Setting SCFConvForced true
         You can overwrite this default with %scf ConvForced false 


WARNING: MDCI localization with Augmented Hessian Foster-Boys
  ===> : Switching off randomization!

INFO   : the flag for use of the SHARK integral package has been found!

================================================================================
                                       INPUT FILE
================================================================================
NAME = Fluoxetine_18.inp
|  1> ! DLPNO-CCSD(T) def2-TZVPP def2-TZVPP/C VeryTightSCF
|  2> %maxcore 3400
|  3> 
|  4> %pal nprocs 8 
|  5> end
|  6> 
|  7> *xyz 1 1
|  8>  C       -1.307520        2.907274       -0.799633
|  9>  N       -2.307001        1.812480       -0.930063
| 10>  C       -3.072624        1.496990        0.328010
| 11>  C       -2.238438        0.686109        1.305256
| 12>  C       -1.788535       -0.673569        0.743858
| 13>  C       -2.958995       -1.498301        0.249893
| 14>  C       -3.126008       -1.826687       -1.089305
| 15>  C       -4.240184       -2.548769       -1.499017
| 16>  C       -5.190947       -2.950172       -0.576777
| 17>  C       -5.020820       -2.637373        0.765072
| 18>  C       -3.912569       -1.916659        1.174843
| 19>  O       -0.895707       -0.462261       -0.352574
| 20>  C        0.415955       -0.118395       -0.133574
| 21>  C        1.154031        0.135940       -1.285903
| 22>  C        2.475619        0.516657       -1.185117
| 23>  C        3.071072        0.643396        0.064824
| 24>  C        2.337957        0.375247        1.204730
| 25>  C        1.004884       -0.006909        1.116103
| 26>  C        4.501440        1.110975        0.155978
| 27>  F        5.263988        0.534866       -0.779134
| 28>  F        4.581477        2.438766       -0.032260
| 29>  F        5.040807        0.844111        1.347795
| 30>  H       -0.567084        2.622134       -0.057645
| 31>  H       -1.817601        3.817834       -0.496453
| 32>  H       -0.816532        3.052132       -1.758153
| 33>  H       -1.815086        0.945851       -1.193345
| 34>  H       -3.953392        0.934596        0.020120
| 35>  H       -3.392232        2.444702        0.758017
| 36>  H       -2.857266        0.518441        2.186757
| 37>  H       -1.372001        1.255229        1.645884
| 38>  H       -1.271057       -1.233239        1.525015
| 39>  H       -2.371803       -1.555042       -1.815428
| 40>  H       -4.354275       -2.807923       -2.543565
| 41>  H       -6.055006       -3.516994       -0.896972
| 42>  H       -5.749063       -2.963779        1.495774
| 43>  H       -3.784942       -1.695471        2.228812
| 44>  H        0.688184        0.003104       -2.254350
| 45>  H        3.052228        0.704575       -2.081199
| 46>  H        2.801965        0.458397        2.177871
| 47>  H        0.462136       -0.219234        2.025454
| 48>  H       -2.964213        2.037799       -1.672260
| 49> *
| 50> 
| 51> 
| 52>                          ****END OF INPUT****
================================================================================

                       ****************************
                       * Single Point Calculation *
                       ****************************

---------------------------------
CARTESIAN COORDINATES (ANGSTROEM)
---------------------------------
  C     -1.307520    2.907274   -0.799633
  N     -2.307001    1.812480   -0.930063
  C     -3.072624    1.496990    0.328010
  C     -2.238438    0.686109    1.305256
  C     -1.788535   -0.673569    0.743858
  C     -2.958995   -1.498301    0.249893
  C     -3.126008   -1.826687   -1.089305
  C     -4.240184   -2.548769   -1.499017
  C     -5.190947   -2.950172   -0.576777
  C     -5.020820   -2.637373    0.765072
  C     -3.912569   -1.916659    1.174843
  O     -0.895707   -0.462261   -0.352574
  C      0.415955   -0.118395   -0.133574
  C      1.154031    0.135940   -1.285903
  C      2.475619    0.516657   -1.185117
  C      3.071072    0.643396    0.064824
  C      2.337957    0.375247    1.204730
  C      1.004884   -0.006909    1.116103
  C      4.501440    1.110975    0.155978
  F      5.263988    0.534866   -0.779134
  F      4.581477    2.438766   -0.032260
  F      5.040807    0.844111    1.347795
  H     -0.567084    2.622134   -0.057645
  H     -1.817601    3.817834   -0.496453
  H     -0.816532    3.052132   -1.758153
  H     -1.815086    0.945851   -1.193345
  H     -3.953392    0.934596    0.020120
  H     -3.392232    2.444702    0.758017
  H     -2.857266    0.518441    2.186757
  H     -1.372001    1.255229    1.645884
  H     -1.271057   -1.233239    1.525015
  H     -2.371803   -1.555042   -1.815428
  H     -4.354275   -2.807923   -2.543565
  H     -6.055006   -3.516994   -0.896972
  H     -5.749063   -2.963779    1.495774
  H     -3.784942   -1.695471    2.228812
  H      0.688184    0.003104   -2.254350
  H      3.052228    0.704575   -2.081199
  H      2.801965    0.458397    2.177871
  H      0.462136   -0.219234    2.025454
  H     -2.964213    2.037799   -1.672260

----------------------------
CARTESIAN COORDINATES (A.U.)
----------------------------
  NO LB      ZA    FRAG     MASS         X           Y           Z
   0 C     6.0000    0    12.011   -2.470855    5.493952   -1.511087
   1 N     7.0000    0    14.007   -4.359600    3.425091   -1.757564
   2 C     6.0000    0    12.011   -5.806418    2.828901    0.619849
   3 C     6.0000    0    12.011   -4.230035    1.296558    2.466576
   4 C     6.0000    0    12.011   -3.379841   -1.272861    1.405688
   5 C     6.0000    0    12.011   -5.591690   -2.831379    0.472229
   6 C     6.0000    0    12.011   -5.907299   -3.451938   -2.058488
   7 C     6.0000    0    12.011   -8.012787   -4.816475   -2.832732
   8 C     6.0000    0    12.011   -9.809468   -5.575017   -1.089951
   9 C     6.0000    0    12.011   -9.487975   -4.983913    1.445777
  10 C     6.0000    0    12.011   -7.393684   -3.621961    2.220132
  11 O     8.0000    0    15.999   -1.692641   -0.873547   -0.666268
  12 C     6.0000    0    12.011    0.786041   -0.223734   -0.252418
  13 C     6.0000    0    12.011    2.180803    0.256889   -2.430005
  14 C     6.0000    0    12.011    4.678242    0.976340   -2.239547
  15 C     6.0000    0    12.011    5.803485    1.215842    0.122500
  16 C     6.0000    0    12.011    4.418098    0.709114    2.276610
  17 C     6.0000    0    12.011    1.898956   -0.013056    2.109129
  18 C     6.0000    0    12.011    8.506489    2.099438    0.294756
  19 F     9.0000    0    18.998    9.947496    1.010750   -1.472350
  20 F     9.0000    0    18.998    8.657737    4.608600   -0.060963
  21 F     9.0000    0    18.998    9.525745    1.595139    2.546963
  22 H     1.0000    0     1.008   -1.071633    4.955115   -0.108933
  23 H     1.0000    0     1.008   -3.434768    7.214661   -0.938160
  24 H     1.0000    0     1.008   -1.543022    5.767694   -3.322428
  25 H     1.0000    0     1.008   -3.430015    1.787399   -2.255095
  26 H     1.0000    0     1.008   -7.470828    1.766130    0.038021
  27 H     1.0000    0     1.008   -6.410389    4.619817    1.432445
  28 H     1.0000    0     1.008   -5.399450    0.979712    4.132372
  29 H     1.0000    0     1.008   -2.592706    2.372039    3.110270
  30 H     1.0000    0     1.008   -2.401950   -2.330484    2.881861
  31 H     1.0000    0     1.008   -4.482058   -2.938604   -3.430662
  32 H     1.0000    0     1.008   -8.228387   -5.306205   -4.806641
  33 H     1.0000    0     1.008  -11.442303   -6.646155   -1.695031
  34 H     1.0000    0     1.008  -10.864155   -5.600731    2.826603
  35 H     1.0000    0     1.008   -7.152504   -3.203976    4.211844
  36 H     1.0000    0     1.008    1.300479    0.005866   -4.260104
  37 H     1.0000    0     1.008    5.767875    1.331454   -3.932896
  38 H     1.0000    0     1.008    5.294946    0.866245    4.115580
  39 H     1.0000    0     1.008    0.873310   -0.414292    3.827553
  40 H     1.0000    0     1.008   -5.601551    3.850882   -3.160113

--------------------------------
INTERNAL COORDINATES (ANGSTROEM)
--------------------------------
 C      0   0   0     0.000000000000     0.00000000     0.00000000
 N      1   0   0     1.488135799145     0.00000000     0.00000000
 C      2   1   0     1.506140827266   114.98024747     0.00000000
 C      3   2   1     1.519343286842   111.71324651   282.95047521
 C      4   3   2     1.538279781931   113.42702840   299.16724301
 C      5   4   3     1.514648772702   111.98067934   305.34705020
 C      6   5   4     1.388949959635   122.41846397   114.53303848
 C      7   6   5     1.389479937474   120.23785063   182.11346728
 C      8   7   6     1.384052480283   120.33612495   359.82169912
 C      9   8   7     1.388288568465   119.63794623   359.45329261
 C     10   9   8     1.384038012931   120.10716835     0.63145807
 O      5   4   3     1.429669905633   109.38371542    65.33262267
 C     12   5   4     1.373558163384   120.73599925    77.91154264
 C     13  12   5     1.391870898554   114.84253918   183.69700832
 C     14  13  12     1.379020700943   119.87647351   178.68147492
 C     15  14  13     1.390316349904   120.08748877     0.14736229
 C     16  15  14     1.381574166761   119.78950607     0.57247723
 C     13  12   5     1.385986688091   124.72690696     3.11452549
 C     16  15  14     1.507611285571   119.27308463   182.29408663
 F     19  16  15     1.337092175106   111.41784159   317.87918621
 F     19  16  15     1.343453909032   110.76777679    76.98106355
 F     19  16  15     1.335125805561   112.04068477   196.84932511
 H      1   2   3     1.086322457579   108.93807543    60.96790886
 H      1   2   3     1.086839570756   109.00152217   300.39134565
 H      1   2   3     1.086652495837   108.91874903   180.03677886
 H      2   1   3     1.030700539628   108.68805215   241.08561180
 H      3   2   1     1.089419814929   106.44173384   162.25464371
 H      3   2   1     1.088675033542   107.26636211    45.82346074
 H      4   3   2     1.090002139819   106.89118538   179.03517768
 H      4   3   2     1.091163637477   111.00138068    63.66740695
 H      5   4   3     1.091430367927   109.31218400   184.83113305
 H      7   6   5     1.081605657890   120.26935380     4.43204115
 H      8   7   6     1.082246772368   119.57553510   180.64857883
 H      9   8   7     1.081854876215   120.22430416   180.33608106
 H     10   9   8     1.082037040350   120.15023890   181.19969226
 H     11  10   9     1.084464584684   119.22159597   181.08159077
 H     14  13  12     1.082842750409   119.33348857   356.88503883
 H     15  14  13     1.082013892854   119.87640641   179.37677586
 H     17  16  15     1.081305115333   119.99423602   179.08386043
 H     18  13  12     1.080081727616   121.99123450     1.97879634
 H      2   1   3     1.016637915639   109.57968681   123.32025530

---------------------------
INTERNAL COORDINATES (A.U.)
---------------------------
 C      0   0   0     0.000000000000     0.00000000     0.00000000
 N      1   0   0     2.812169110468     0.00000000     0.00000000
 C      2   1   0     2.846193682651   114.98024747     0.00000000
 C      3   2   1     2.871142715544   111.71324651   282.95047521
 C      4   3   2     2.906927505197   113.42702840   299.16724301
 C      5   4   3     2.862271369488   111.98067934   305.34705020
 C      6   5   4     2.624735037430   122.41846397   114.53303848
 C      7   6   5     2.625736550405   120.23785063   182.11346728
 C      8   7   6     2.615480142710   120.33612495   359.82169912
 C      9   8   7     2.623485189253   119.63794623   359.45329261
 C     10   9   8     2.615452803376   120.10716835     0.63145807
 O      5   4   3     2.701684583555   109.38371542    65.33262267
 C     12   5   4     2.595648757808   120.73599925    77.91154264
 C     13  12   5     2.630254812042   114.84253918   183.69700832
 C     14  13  12     2.605971457790   119.87647351   178.68147492
 C     15  14  13     2.627317140832   120.08748877     0.14736229
 C     16  15  14     2.610796808879   119.78950607     0.57247723
 C     13  12   5     2.619135265753   124.72690696     3.11452549
 C     16  15  14     2.848972446138   119.27308463   182.29408663
 F     19  16  15     2.526738026759   111.41784159   317.87918621
 F     19  16  15     2.538759961617   110.76777679    76.98106355
 F     19  16  15     2.523022126841   112.04068477   196.84932511
 H      1   2   3     2.052851937952   108.93807543    60.96790886
 H      1   2   3     2.053829140237   109.00152217   300.39134565
 H      1   2   3     2.053475619873   108.91874903   180.03677886
 H      2   1   3     1.947741745982   108.68805215   241.08561180
 H      3   2   1     2.058705095083   106.44173384   162.25464371
 H      3   2   1     2.057297662231   107.26636211    45.82346074
 H      4   3   2     2.059805529645   106.89118538   179.03517768
 H      4   3   2     2.062000442126   111.00138068    63.66740695
 H      5   4   3     2.062504489627   109.31218400   184.83113305
 H      7   6   5     2.043938478311   120.26935380     4.43204115
 H      8   7   6     2.045150009096   119.57553510   180.64857883
 H      9   8   7     2.044409432693   120.22430416   180.33608106
 H     10   9   8     2.044753673020   120.15023890   181.19969226
 H     11  10   9     2.049341066990   119.22159597   181.08159077
 H     14  13  12     2.046276244376   119.33348857   356.88503883
 H     15  14  13     2.044709930592   119.87640641   179.37677586
 H     17  16  15     2.043370535187   119.99423602   179.08386043
 H     18  13  12     2.041058667447   121.99123450     1.97879634
 H      2   1   3     1.921167237917   109.57968681   123.32025530

---------------------
BASIS SET INFORMATION
---------------------
There are 5 groups of distinct atoms

 Group   1 Type C   : 11s6p2d1f contracted to 5s3p2d1f pattern {62111/411/11/1}
 Group   2 Type N   : 11s6p2d1f contracted to 5s3p2d1f pattern {62111/411/11/1}
 Group   3 Type O   : 11s6p2d1f contracted to 5s3p2d1f pattern {62111/411/11/1}
 Group   4 Type F   : 11s6p2d1f contracted to 5s3p2d1f pattern {62111/411/11/1}
 Group   5 Type H   : 5s2p1d contracted to 3s2p1d pattern {311/11/1}

Atom   0C    basis set group =>   1
Atom   1N    basis set group =>   2
Atom   2C    basis set group =>   1
Atom   3C    basis set group =>   1
Atom   4C    basis set group =>   1
Atom   5C    basis set group =>   1
Atom   6C    basis set group =>   1
Atom   7C    basis set group =>   1
Atom   8C    basis set group =>   1
Atom   9C    basis set group =>   1
Atom  10C    basis set group =>   1
Atom  11O    basis set group =>   3
Atom  12C    basis set group =>   1
Atom  13C    basis set group =>   1
Atom  14C    basis set group =>   1
Atom  15C    basis set group =>   1
Atom  16C    basis set group =>   1
Atom  17C    basis set group =>   1
Atom  18C    basis set group =>   1
Atom  19F    basis set group =>   4
Atom  20F    basis set group =>   4
Atom  21F    basis set group =>   4
Atom  22H    basis set group =>   5
Atom  23H    basis set group =>   5
Atom  24H    basis set group =>   5
Atom  25H    basis set group =>   5
Atom  26H    basis set group =>   5
Atom  27H    basis set group =>   5
Atom  28H    basis set group =>   5
Atom  29H    basis set group =>   5
Atom  30H    basis set group =>   5
Atom  31H    basis set group =>   5
Atom  32H    basis set group =>   5
Atom  33H    basis set group =>   5
Atom  34H    basis set group =>   5
Atom  35H    basis set group =>   5
Atom  36H    basis set group =>   5
Atom  37H    basis set group =>   5
Atom  38H    basis set group =>   5
Atom  39H    basis set group =>   5
Atom  40H    basis set group =>   5
---------------------------------
AUXILIARY/C BASIS SET INFORMATION
---------------------------------
There are 5 groups of distinct atoms

 Group   1 Type C   : 8s6p5d3f1g contracted to 8s6p4d3f1g pattern {11111111/111111/2111/111/1}
 Group   2 Type N   : 8s6p5d3f1g contracted to 8s6p4d3f1g pattern {11111111/111111/2111/111/1}
 Group   3 Type O   : 8s6p5d3f1g contracted to 8s6p4d3f1g pattern {11111111/111111/2111/111/1}
 Group   4 Type F   : 8s6p5d3f1g contracted to 8s6p4d3f1g pattern {11111111/111111/2111/111/1}
 Group   5 Type H   : 4s3p2d1f contracted to 4s3p2d1f pattern {1111/111/11/1}

Atom   0C    basis set group =>   1
Atom   1N    basis set group =>   2
Atom   2C    basis set group =>   1
Atom   3C    basis set group =>   1
Atom   4C    basis set group =>   1
Atom   5C    basis set group =>   1
Atom   6C    basis set group =>   1
Atom   7C    basis set group =>   1
Atom   8C    basis set group =>   1
Atom   9C    basis set group =>   1
Atom  10C    basis set group =>   1
Atom  11O    basis set group =>   3
Atom  12C    basis set group =>   1
Atom  13C    basis set group =>   1
Atom  14C    basis set group =>   1
Atom  15C    basis set group =>   1
Atom  16C    basis set group =>   1
Atom  17C    basis set group =>   1
Atom  18C    basis set group =>   1
Atom  19F    basis set group =>   4
Atom  20F    basis set group =>   4
Atom  21F    basis set group =>   4
Atom  22H    basis set group =>   5
Atom  23H    basis set group =>   5
Atom  24H    basis set group =>   5
Atom  25H    basis set group =>   5
Atom  26H    basis set group =>   5
Atom  27H    basis set group =>   5
Atom  28H    basis set group =>   5
Atom  29H    basis set group =>   5
Atom  30H    basis set group =>   5
Atom  31H    basis set group =>   5
Atom  32H    basis set group =>   5
Atom  33H    basis set group =>   5
Atom  34H    basis set group =>   5
Atom  35H    basis set group =>   5
Atom  36H    basis set group =>   5
Atom  37H    basis set group =>   5
Atom  38H    basis set group =>   5
Atom  39H    basis set group =>   5
Atom  40H    basis set group =>   5


           ************************************************************
           *        Program running with 8 parallel MPI-processes     *
           *              working on a common directory               *
           ************************************************************
------------------------------------------------------------------------------
                           ORCA GTO INTEGRAL CALCULATION
------------------------------------------------------------------------------
------------------------------------------------------------------------------
                   ___                                                        
                  /   \      - P O W E R E D   B Y -                         
                 /     \                                                     
                 |  |  |   _    _      __       _____    __    __             
                 |  |  |  | |  | |    /  \     |  _  \  |  |  /  |          
                  \  \/   | |  | |   /    \    | | | |  |  | /  /          
                 / \  \   | |__| |  /  /\  \   | |_| |  |  |/  /          
                |  |  |   |  __  | /  /__\  \  |    /   |      \           
                |  |  |   | |  | | |   __   |  |    \   |  |\   \          
                \     /   | |  | | |  |  |  |  | |\  \  |  | \   \       
                 \___/    |_|  |_| |__|  |__|  |_| \__\ |__|  \__/        
                                                                              
                      - O R C A' S   B I G   F R I E N D -                    
                                      &                                       
                       - I N T E G R A L  F E E D E R -                       
                                                                              
 v1 FN, 2020, v2 2021                                                         
------------------------------------------------------------------------------


Reading SHARK input file Fluoxetine_18.SHARKINP.tmp ... ok
----------------------
SHARK INTEGRAL PACKAGE
----------------------

Number of atoms                             ...     41
Number of basis functions                   ...    948
Number of shells                            ...    356
Maximum angular momentum                    ...      3
Integral batch strategy                     ... SHARK/LIBINT Hybrid
RI-J (if used) integral strategy            ... SPLIT-RIJ (Revised 2003 algorithm where possible)
Printlevel                                  ...      1
Contraction scheme used                     ... SEGMENTED contraction
Coulomb Range Separation                    ... NOT USED
Exchange Range Separation                   ... NOT USED
Finite Nucleus Model                        ... NOT USED
Auxiliary Coulomb fitting basis             ... NOT available
Auxiliary J/K fitting basis                 ... NOT available
Auxiliary Correlation fitting basis         ... AVAILABLE
   # of basis functions in Aux-C            ...   2242
   # of shells in Aux-C                     ...    674
   Maximum angular momentum in Aux-C        ...      4
Auxiliary 'external' fitting basis          ... NOT available
Integral threshold                          ...     1.000000e-12
Primitive cut-off                           ...     1.000000e-14
Primitive pair pre-selection threshold      ...     1.000000e-14

Calculating pre-screening integrals         ... done (  0.1 sec) Dimension = 356
Organizing shell pair data                  ... done (  0.3 sec)
Shell pair information
Total number of shell pairs                 ...     63546
Shell pairs after pre-screening             ...     45610
Total number of primitive shell pairs       ...    176069
Primitive shell pairs kept                  ...     87769
          la=0 lb=0:  10103 shell pairs
          la=1 lb=0:  13015 shell pairs
          la=1 lb=1:   4296 shell pairs
          la=2 lb=0:   7102 shell pairs
          la=2 lb=1:   4700 shell pairs
          la=2 lb=2:   1285 shell pairs
          la=3 lb=0:   2455 shell pairs
          la=3 lb=1:   1623 shell pairs
          la=3 lb=2:    870 shell pairs
          la=3 lb=3:    161 shell pairs

Calculating one electron integrals          ... done (  0.1 sec)
Calculating RI/C V-Matrix + Cholesky decomp.... done (  0.3 sec)
Calculating Nuclear repulsion               ... done (  0.0 sec) ENN=   1832.240157959791 Eh

SHARK setup successfully completed in   1.4 seconds

Maximum memory used throughout the entire GTOINT-calculation: 72.0 MB
[1696462134.002800] [nc30514:1251203:0]          mpool.c:42   UCX  WARN  object 0xa63d3c0 was not returned to mpool ucp_requests
[1696462134.002823] [nc30514:1251203:0]          mpool.c:42   UCX  WARN  object 0xa63d580 was not returned to mpool ucp_requests
[1696462134.002828] [nc30514:1251203:0]          mpool.c:42   UCX  WARN  object 0xa63d740 was not returned to mpool ucp_requests
[1696462134.002831] [nc30514:1251203:0]          mpool.c:42   UCX  WARN  object 0xa63d900 was not returned to mpool ucp_requests
[1696462134.002835] [nc30514:1251203:0]          mpool.c:42   UCX  WARN  object 0xa63dac0 was not returned to mpool ucp_requests
[1696462134.002838] [nc30514:1251203:0]          mpool.c:42   UCX  WARN  object 0xa63dc80 was not returned to mpool ucp_requests
[1696462134.002842] [nc30514:1251203:0]          mpool.c:42   UCX  WARN  object 0xa63de40 was not returned to mpool ucp_requests
[1696462134.002846] [nc30514:1251203:0]          mpool.c:42   UCX  WARN  object 0xa63e000 was not returned to mpool ucp_requests
[1696462134.002850] [nc30514:1251203:0]          mpool.c:42   UCX  WARN  object 0xa63e1c0 was not returned to mpool ucp_requests
[1696462134.002853] [nc30514:1251203:0]          mpool.c:42   UCX  WARN  object 0xa63e380 was not returned to mpool ucp_requests
[1696462134.002857] [nc30514:1251203:0]          mpool.c:42   UCX  WARN  object 0xa63e540 was not returned to mpool ucp_requests
[1696462134.002861] [nc30514:1251203:0]          mpool.c:42   UCX  WARN  object 0xa63e700 was not returned to mpool ucp_requests
[1696462134.002864] [nc30514:1251203:0]          mpool.c:42   UCX  WARN  object 0xa63e8c0 was not returned to mpool ucp_requests
[1696462134.002868] [nc30514:1251203:0]          mpool.c:42   UCX  WARN  object 0xa63ea80 was not returned to mpool ucp_requests
[1696462134.002872] [nc30514:1251203:0]          mpool.c:42   UCX  WARN  object 0xa63ec40 was not returned to mpool ucp_requests
[1696462134.002876] [nc30514:1251203:0]          mpool.c:42   UCX  WARN  object 0xa63ee00 was not returned to mpool ucp_requests
[1696462134.002880] [nc30514:1251203:0]          mpool.c:42   UCX  WARN  object 0xa63efc0 was not returned to mpool ucp_requests
[1696462134.002884] [nc30514:1251203:0]          mpool.c:42   UCX  WARN  object 0xa63f180 was not returned to mpool ucp_requests
[1696462134.002888] [nc30514:1251203:0]          mpool.c:42   UCX  WARN  object 0xa63f340 was not returned to mpool ucp_requests
[1696462134.002963] [nc30514:1251204:0]          mpool.c:42   UCX  WARN  object 0xbaad7c0 was not returned to mpool ucp_requests
[1696462134.002980] [nc30514:1251204:0]          mpool.c:42   UCX  WARN  object 0xbaad980 was not returned to mpool ucp_requests
[1696462134.002983] [nc30514:1251204:0]          mpool.c:42   UCX  WARN  object 0xbaadb40 was not returned to mpool ucp_requests
[1696462134.002986] [nc30514:1251204:0]          mpool.c:42   UCX  WARN  object 0xbaadd00 was not returned to mpool ucp_requests
[1696462134.002988] [nc30514:1251204:0]          mpool.c:42   UCX  WARN  object 0xbaadec0 was not returned to mpool ucp_requests
[1696462134.002991] [nc30514:1251204:0]          mpool.c:42   UCX  WARN  object 0xbaae080 was not returned to mpool ucp_requests
[1696462134.002993] [nc30514:1251204:0]          mpool.c:42   UCX  WARN  object 0xbaae240 was not returned to mpool ucp_requests
[1696462134.002995] [nc30514:1251204:0]          mpool.c:42   UCX  WARN  object 0xbaae400 was not returned to mpool ucp_requests
[1696462134.002998] [nc30514:1251204:0]          mpool.c:42   UCX  WARN  object 0xbaae5c0 was not returned to mpool ucp_requests
[1696462134.003000] [nc30514:1251204:0]          mpool.c:42   UCX  WARN  object 0xbaae780 was not returned to mpool ucp_requests
[1696462134.003002] [nc30514:1251204:0]          mpool.c:42   UCX  WARN  object 0xbaae940 was not returned to mpool ucp_requests
[1696462134.003004] [nc30514:1251204:0]          mpool.c:42   UCX  WARN  object 0xbaaeb00 was not returned to mpool ucp_requests
[1696462134.003007] [nc30514:1251204:0]          mpool.c:42   UCX  WARN  object 0xbaaecc0 was not returned to mpool ucp_requests
[1696462134.003009] [nc30514:1251204:0]          mpool.c:42   UCX  WARN  object 0xbaaee80 was not returned to mpool ucp_requests
[1696462134.003012] [nc30514:1251204:0]          mpool.c:42   UCX  WARN  object 0xbaaf040 was not returned to mpool ucp_requests
[1696462134.003014] [nc30514:1251204:0]          mpool.c:42   UCX  WARN  object 0xbaaf200 was not returned to mpool ucp_requests
[1696462134.003017] [nc30514:1251204:0]          mpool.c:42   UCX  WARN  object 0xbaaf3c0 was not returned to mpool ucp_requests
[1696462134.003229] [nc30514:1251200:0]          mpool.c:42   UCX  WARN  object 0xbd54d00 was not returned to mpool ucp_requests
[1696462134.003240] [nc30514:1251200:0]          mpool.c:42   UCX  WARN  object 0xbd54ec0 was not returned to mpool ucp_requests
[1696462134.003244] [nc30514:1251200:0]          mpool.c:42   UCX  WARN  object 0xbd55080 was not returned to mpool ucp_requests
[1696462134.003246] [nc30514:1251200:0]          mpool.c:42   UCX  WARN  object 0xbd55240 was not returned to mpool ucp_requests
[1696462134.003249] [nc30514:1251200:0]          mpool.c:42   UCX  WARN  object 0xbd55400 was not returned to mpool ucp_requests
[1696462134.003251] [nc30514:1251200:0]          mpool.c:42   UCX  WARN  object 0xbd555c0 was not returned to mpool ucp_requests
[1696462134.003253] [nc30514:1251200:0]          mpool.c:42   UCX  WARN  object 0xbd55780 was not returned to mpool ucp_requests
[1696462134.003256] [nc30514:1251200:0]          mpool.c:42   UCX  WARN  object 0xbd55940 was not returned to mpool ucp_requests
[1696462134.003258] [nc30514:1251200:0]          mpool.c:42   UCX  WARN  object 0xbd55b00 was not returned to mpool ucp_requests
[1696462134.003261] [nc30514:1251200:0]          mpool.c:42   UCX  WARN  object 0xbd55cc0 was not returned to mpool ucp_requests
[1696462134.003263] [nc30514:1251200:0]          mpool.c:42   UCX  WARN  object 0xbd55e80 was not returned to mpool ucp_requests
[1696462134.003266] [nc30514:1251200:0]          mpool.c:42   UCX  WARN  object 0xbd56040 was not returned to mpool ucp_requests
[1696462134.003268] [nc30514:1251200:0]          mpool.c:42   UCX  WARN  object 0xbd56200 was not returned to mpool ucp_requests
[1696462134.003270] [nc30514:1251200:0]          mpool.c:42   UCX  WARN  object 0xbd563c0 was not returned to mpool ucp_requests
[1696462134.003273] [nc30514:1251200:0]          mpool.c:42   UCX  WARN  object 0xbd56580 was not returned to mpool ucp_requests
[1696462134.003275] [nc30514:1251200:0]          mpool.c:42   UCX  WARN  object 0xbd56740 was not returned to mpool ucp_requests
[1696462134.003278] [nc30514:1251200:0]          mpool.c:42   UCX  WARN  object 0xbd56900 was not returned to mpool ucp_requests
[1696462134.003280] [nc30514:1251200:0]          mpool.c:42   UCX  WARN  object 0xbd56ac0 was not returned to mpool ucp_requests
[1696462134.008321] [nc30514:1251199:0]          mpool.c:42   UCX  WARN  object 0xb7cecc0 was not returned to mpool ucp_requests
[1696462134.008340] [nc30514:1251199:0]          mpool.c:42   UCX  WARN  object 0xb7cee80 was not returned to mpool ucp_requests
[1696462134.008346] [nc30514:1251199:0]          mpool.c:42   UCX  WARN  object 0xb7cf040 was not returned to mpool ucp_requests
[1696462134.008349] [nc30514:1251199:0]          mpool.c:42   UCX  WARN  object 0xb7cf200 was not returned to mpool ucp_requests
[1696462134.008353] [nc30514:1251199:0]          mpool.c:42   UCX  WARN  object 0xb7cf3c0 was not returned to mpool ucp_requests
[1696462134.008357] [nc30514:1251199:0]          mpool.c:42   UCX  WARN  object 0xb7cf580 was not returned to mpool ucp_requests
[1696462134.008360] [nc30514:1251199:0]          mpool.c:42   UCX  WARN  object 0xb7cf740 was not returned to mpool ucp_requests
[1696462134.008364] [nc30514:1251199:0]          mpool.c:42   UCX  WARN  object 0xb7cf900 was not returned to mpool ucp_requests
[1696462134.008378] [nc30514:1251199:0]          mpool.c:42   UCX  WARN  object 0xb7cfac0 was not returned to mpool ucp_requests
[1696462134.008381] [nc30514:1251199:0]          mpool.c:42   UCX  WARN  object 0xb7cfc80 was not returned to mpool ucp_requests
[1696462134.008385] [nc30514:1251199:0]          mpool.c:42   UCX  WARN  object 0xb7cfe40 was not returned to mpool ucp_requests
[1696462134.008389] [nc30514:1251199:0]          mpool.c:42   UCX  WARN  object 0xb7d0000 was not returned to mpool ucp_requests
[1696462134.008392] [nc30514:1251199:0]          mpool.c:42   UCX  WARN  object 0xb7d01c0 was not returned to mpool ucp_requests
[1696462134.008396] [nc30514:1251199:0]          mpool.c:42   UCX  WARN  object 0xb7d0380 was not returned to mpool ucp_requests
[1696462134.008400] [nc30514:1251199:0]          mpool.c:42   UCX  WARN  object 0xb7d0540 was not returned to mpool ucp_requests
[1696462134.008403] [nc30514:1251199:0]          mpool.c:42   UCX  WARN  object 0xb7d0700 was not returned to mpool ucp_requests
[1696462134.008407] [nc30514:1251199:0]          mpool.c:42   UCX  WARN  object 0xb7d08c0 was not returned to mpool ucp_requests
[1696462134.008411] [nc30514:1251199:0]          mpool.c:42   UCX  WARN  object 0xb7d0a80 was not returned to mpool ucp_requests
[1696462134.009462] [nc30514:1251205:0]          mpool.c:42   UCX  WARN  object 0xb64eb00 was not returned to mpool ucp_requests
[1696462134.009478] [nc30514:1251205:0]          mpool.c:42   UCX  WARN  object 0xb64ecc0 was not returned to mpool ucp_requests
[1696462134.009483] [nc30514:1251205:0]          mpool.c:42   UCX  WARN  object 0xb64ee80 was not returned to mpool ucp_requests
[1696462134.009487] [nc30514:1251205:0]          mpool.c:42   UCX  WARN  object 0xb64f040 was not returned to mpool ucp_requests
[1696462134.009490] [nc30514:1251205:0]          mpool.c:42   UCX  WARN  object 0xb64f200 was not returned to mpool ucp_requests
[1696462134.009493] [nc30514:1251205:0]          mpool.c:42   UCX  WARN  object 0xb64f3c0 was not returned to mpool ucp_requests
[1696462134.009496] [nc30514:1251205:0]          mpool.c:42   UCX  WARN  object 0xb64f580 was not returned to mpool ucp_requests
[1696462134.009500] [nc30514:1251205:0]          mpool.c:42   UCX  WARN  object 0xb64f740 was not returned to mpool ucp_requests
[1696462134.009503] [nc30514:1251205:0]          mpool.c:42   UCX  WARN  object 0xb64f900 was not returned to mpool ucp_requests
[1696462134.009507] [nc30514:1251205:0]          mpool.c:42   UCX  WARN  object 0xb64fac0 was not returned to mpool ucp_requests
[1696462134.009510] [nc30514:1251205:0]          mpool.c:42   UCX  WARN  object 0xb64fc80 was not returned to mpool ucp_requests
[1696462134.009513] [nc30514:1251205:0]          mpool.c:42   UCX  WARN  object 0xb64fe40 was not returned to mpool ucp_requests
[1696462134.009517] [nc30514:1251205:0]          mpool.c:42   UCX  WARN  object 0xb650000 was not returned to mpool ucp_requests
[1696462134.009520] [nc30514:1251205:0]          mpool.c:42   UCX  WARN  object 0xb6501c0 was not returned to mpool ucp_requests
[1696462134.009523] [nc30514:1251205:0]          mpool.c:42   UCX  WARN  object 0xb650380 was not returned to mpool ucp_requests
[1696462134.009527] [nc30514:1251205:0]          mpool.c:42   UCX  WARN  object 0xb650540 was not returned to mpool ucp_requests
[1696462134.009530] [nc30514:1251205:0]          mpool.c:42   UCX  WARN  object 0xb650700 was not returned to mpool ucp_requests
[1696462134.010804] [nc30514:1251202:0]          mpool.c:42   UCX  WARN  object 0xa67c3c0 was not returned to mpool ucp_requests
[1696462134.010821] [nc30514:1251202:0]          mpool.c:42   UCX  WARN  object 0xa67c580 was not returned to mpool ucp_requests
[1696462134.010826] [nc30514:1251202:0]          mpool.c:42   UCX  WARN  object 0xa67c740 was not returned to mpool ucp_requests
[1696462134.010829] [nc30514:1251202:0]          mpool.c:42   UCX  WARN  object 0xa67c900 was not returned to mpool ucp_requests
[1696462134.010832] [nc30514:1251202:0]          mpool.c:42   UCX  WARN  object 0xa67cac0 was not returned to mpool ucp_requests
[1696462134.010835] [nc30514:1251202:0]          mpool.c:42   UCX  WARN  object 0xa67cc80 was not returned to mpool ucp_requests
[1696462134.010840] [nc30514:1251202:0]          mpool.c:42   UCX  WARN  object 0xa67ce40 was not returned to mpool ucp_requests
[1696462134.010843] [nc30514:1251202:0]          mpool.c:42   UCX  WARN  object 0xa67d000 was not returned to mpool ucp_requests
[1696462134.010847] [nc30514:1251202:0]          mpool.c:42   UCX  WARN  object 0xa67d1c0 was not returned to mpool ucp_requests
[1696462134.010849] [nc30514:1251202:0]          mpool.c:42   UCX  WARN  object 0xa67d380 was not returned to mpool ucp_requests
[1696462134.010855] [nc30514:1251202:0]          mpool.c:42   UCX  WARN  object 0xa67d540 was not returned to mpool ucp_requests
[1696462134.010859] [nc30514:1251202:0]          mpool.c:42   UCX  WARN  object 0xa67d700 was not returned to mpool ucp_requests
[1696462134.010861] [nc30514:1251202:0]          mpool.c:42   UCX  WARN  object 0xa67d8c0 was not returned to mpool ucp_requests
[1696462134.010865] [nc30514:1251202:0]          mpool.c:42   UCX  WARN  object 0xa67da80 was not returned to mpool ucp_requests
[1696462134.010867] [nc30514:1251202:0]          mpool.c:42   UCX  WARN  object 0xa67dc40 was not returned to mpool ucp_requests
[1696462134.010869] [nc30514:1251202:0]          mpool.c:42   UCX  WARN  object 0xa67de00 was not returned to mpool ucp_requests
[1696462134.010873] [nc30514:1251202:0]          mpool.c:42   UCX  WARN  object 0xa67dfc0 was not returned to mpool ucp_requests
[1696462134.010877] [nc30514:1251202:0]          mpool.c:42   UCX  WARN  object 0xa67e180 was not returned to mpool ucp_requests
[1696462134.010880] [nc30514:1251202:0]          mpool.c:42   UCX  WARN  object 0xa67e340 was not returned to mpool ucp_requests
[1696462134.011387] [nc30514:1251198:0]          mpool.c:42   UCX  WARN  object 0xc20e680 was not returned to mpool ucp_requests
[1696462134.011405] [nc30514:1251198:0]          mpool.c:42   UCX  WARN  object 0xc20e840 was not returned to mpool ucp_requests
[1696462134.011408] [nc30514:1251198:0]          mpool.c:42   UCX  WARN  object 0xc20ea00 was not returned to mpool ucp_requests
[1696462134.011411] [nc30514:1251198:0]          mpool.c:42   UCX  WARN  object 0xc20ebc0 was not returned to mpool ucp_requests
[1696462134.011413] [nc30514:1251198:0]          mpool.c:42   UCX  WARN  object 0xc20ed80 was not returned to mpool ucp_requests
[1696462134.011416] [nc30514:1251198:0]          mpool.c:42   UCX  WARN  object 0xc20ef40 was not returned to mpool ucp_requests
[1696462134.011418] [nc30514:1251198:0]          mpool.c:42   UCX  WARN  object 0xc20f100 was not returned to mpool ucp_requests
[1696462134.011421] [nc30514:1251198:0]          mpool.c:42   UCX  WARN  object 0xc20f2c0 was not returned to mpool ucp_requests
[1696462134.011423] [nc30514:1251198:0]          mpool.c:42   UCX  WARN  object 0xc20f640 was not returned to mpool ucp_requests
[1696462134.011425] [nc30514:1251198:0]          mpool.c:42   UCX  WARN  object 0xc20f800 was not returned to mpool ucp_requests


           ************************************************************
           *        Program running with 8 parallel MPI-processes     *
           *              working on a common directory               *
           ************************************************************
-------------------------------------------------------------------------------
                                 ORCA SCF
-------------------------------------------------------------------------------

------------
SCF SETTINGS
------------
Hamiltonian:
 Ab initio Hamiltonian  Method          .... Hartree-Fock(GTOs)


General Settings:
 Integral files         IntName         .... Fluoxetine_18
 Hartree-Fock type      HFTyp           .... RHF
 Total Charge           Charge          ....    1
 Multiplicity           Mult            ....    1
 Number of Electrons    NEL             ....  162
 Basis Dimension        Dim             ....  948
 Nuclear Repulsion      ENuc            ....   1832.2401579598 Eh

Convergence Acceleration:
 DIIS                   CNVDIIS         .... on
   Start iteration      DIISMaxIt       ....    12
   Startup error        DIISStart       ....  0.200000
   # of expansion vecs  DIISMaxEq       ....     5
   Bias factor          DIISBfac        ....   1.050
   Max. coefficient     DIISMaxC        ....  10.000
 Trust-Rad. Augm. Hess. CNVTRAH         .... auto
   Auto Start mean grad. ratio tolernc. ....  1.125000
   Auto Start start iteration           ....    20
   Auto Start num. interpolation iter.  ....    10
   Max. Number of Micro iterations      ....    16
   Max. Number of Macro iterations      .... Maxiter - #DIIS iter
   Number of Davidson start vectors     ....     2
   Converg. threshold I  (grad. norm)   ....   2.000e-06
   Converg. threshold II (energy diff.) ....   1.000e-09
   Grad. Scal. Fac. for Micro threshold ....   0.100
   Minimum threshold for Micro iter.    ....   0.010
   NR start threshold (gradient norm)   ....   0.001
   Initial trust radius                 ....   0.400
   Minimum AH scaling param. (alpha)    ....   1.000
   Maximum AH scaling param. (alpha)    .... 1000.000
   Orbital update algorithm             .... Taylor
   White noise on init. David. guess    .... on
   Maximum white noise                  ....   0.010
   Quad. conv. algorithm                .... NR
 SOSCF                  CNVSOSCF        .... on
   Start iteration      SOSCFMaxIt      ....   150
   Startup grad/error   SOSCFStart      ....  0.003300
 Level Shifting         CNVShift        .... on
   Level shift para.    LevelShift      ....    0.2500
   Turn off err/grad.   ShiftErr        ....    0.0010
 Zerner damping         CNVZerner       .... off
 Static damping         CNVDamp         .... on
   Fraction old density DampFac         ....    0.7000
   Max. Damping (<1)    DampMax         ....    0.9800
   Min. Damping (>=0)   DampMin         ....    0.0000
   Turn off err/grad.   DampErr         ....    0.1000
 Fernandez-Rico         CNVRico         .... off

SCF Procedure:
 Maximum # iterations   MaxIter         ....   125
 SCF integral mode      SCFMode         .... Direct
   Integral package                     .... SHARK and LIBINT hybrid scheme
 Reset frequency        DirectResetFreq ....    20
 Integral Threshold     Thresh          ....  1.000e-12 Eh
 Primitive CutOff       TCut            ....  1.000e-14 Eh

Convergence Tolerance:
 Convergence Check Mode ConvCheckMode   .... Total+1el-Energy
 Convergence forced     ConvForced      .... 1
 Energy Change          TolE            ....  1.000e-09 Eh
 1-El. energy change                    ....  1.000e-06 Eh
 Orbital Gradient       TolG            ....  2.000e-06
 Orbital Rotation angle TolX            ....  2.000e-06
 DIIS Error             TolErr          ....  1.000e-08


Diagonalization of the overlap matrix:
Smallest eigenvalue                        ... 5.963e-06
Time for diagonalization                   ...    0.179 sec
Threshold for overlap eigenvalues          ... 1.000e-08
Number of eigenvalues below threshold      ... 0
Time for construction of square roots      ...    0.096 sec
Total time needed                          ...    0.278 sec

Time for model grid setup =    0.306 sec

------------------------------
INITIAL GUESS: MODEL POTENTIAL
------------------------------
Loading Hartree-Fock densities                     ... done
Calculating cut-offs                               ... done
Initializing the effective Hamiltonian             ... done
Setting up the integral package (SHARK)            ... done
Starting the Coulomb interaction                   ... done (   0.7 sec)
Reading the grid                                   ... done
Mapping shells                                     ... done
Starting the XC term evaluation                    ... done (   0.2 sec)
Transforming the Hamiltonian                       ... done (   0.1 sec)
Diagonalizing the Hamiltonian                      ... done (   0.2 sec)
Back transforming the eigenvectors                 ... done (   0.0 sec)
Now organizing SCF variables                       ... done
                      ------------------
                      INITIAL GUESS DONE (   1.5 sec)
                      ------------------
--------------
SCF ITERATIONS
--------------
ITER       Energy         Delta-E        Max-DP      RMS-DP      [F,P]     Damp
               ***  Starting incremental Fock matrix formation  ***
  0  -1081.8891247922   0.000000000000 0.03354921  0.00046971  0.3472047 0.7000
  1  -1082.1492465473  -0.260121755099 0.02522920  0.00038332  0.2522868 0.7000
                               ***Turning on DIIS***
  2  -1082.3140725400  -0.164825992756 0.01870382  0.00027889  0.1826246 0.7000
  3  -1084.2209622650  -1.906889724947 0.01765794  0.00021224  0.1316614 0.7000
  4  -1084.0012627275   0.219699537469 0.04620057  0.00054749  0.0929255 0.0000
  5  -1082.7265741841   1.274688543448 0.00511630  0.00006220  0.0036571 0.0000
                      *** Initiating the SOSCF procedure ***
                           *** Shutting down DIIS ***
                      *** Re-Reading the Fockian *** 
                      *** Removing any level shift *** 
ITER      Energy       Delta-E        Grad      Rot      Max-DP    RMS-DP
  6  -1082.67136525   0.0552089320  0.000859  0.000859  0.002360  0.000029
               *** Restarting incremental Fock matrix formation ***
  7  -1082.67338520  -0.0020199450  0.000660  0.001420  0.000976  0.000014
  8  -1082.67340492  -0.0000197258  0.000169  0.000938  0.000680  0.000010
  9  -1082.67341022  -0.0000052996  0.000109  0.000172  0.000261  0.000003
 10  -1082.67341081  -0.0000005901  0.000043  0.000141  0.000111  0.000002
 11  -1082.67341095  -0.0000001395  0.000017  0.000115  0.000035  0.000000
 12  -1082.67341099  -0.0000000374  0.000007  0.000024  0.000024  0.000000
 13  -1082.67341099  -0.0000000048  0.000002  0.000008  0.000011  0.000000
 14  -1082.67341099  -0.0000000007  0.000001  0.000002  0.000002  0.000000
                  ***Gradient check signals convergence***
              ***Rediagonalizing the Fockian in SOSCF/NRSCF***

               *****************************************************
               *                     SUCCESS                       *
               *           SCF CONVERGED AFTER  15 CYCLES          *
               *****************************************************


----------------
TOTAL SCF ENERGY
----------------

Total Energy       :        -1082.67341100 Eh          -29461.04128 eV

Components:
Nuclear Repulsion  :         1832.24015796 Eh           49857.78942 eV
Electronic Energy  :        -2914.91356896 Eh          -79318.83070 eV
One Electron Energy:        -5105.46606443 Eh         -138926.79451 eV
Two Electron Energy:         2190.55249547 Eh           59607.96381 eV

Virial components:
Potential Energy   :        -2164.51726282 Eh          -58899.50911 eV
Kinetic Energy     :         1081.84385183 Eh           29438.46783 eV
Virial Ratio       :            2.00076680


---------------
SCF CONVERGENCE
---------------

  Last Energy change         ...   -2.4693e-10  Tolerance :   1.0000e-09
  Last MAX-Density change    ...    7.7434e-07  Tolerance :   1.0000e-08
  Last RMS-Density change    ...    1.3796e-08  Tolerance :   1.0000e-09
  Last Orbital Gradient      ...    2.4372e-07  Tolerance :   2.0000e-06
  Last Orbital Rotation      ...    5.8697e-07  Tolerance :   2.0000e-06

             **** THE GBW FILE WAS UPDATED (Fluoxetine_18.gbw) ****
             **** DENSITY Fluoxetine_18.scfp WAS UPDATED ****
             **** ENERGY FILE WAS UPDATED (Fluoxetine_18.en.tmp) ****
             **** THE GBW FILE WAS UPDATED (Fluoxetine_18.gbw) ****
             **** DENSITY Fluoxetine_18.scfp WAS UPDATED ****
----------------
ORBITAL ENERGIES
----------------

  NO   OCC          E(Eh)            E(eV) 
   0   2.0000     -26.415967      -718.8150 
   1   2.0000     -26.413198      -718.7396 
   2   2.0000     -26.410663      -718.6707 
   3   2.0000     -20.734242      -564.2074 
   4   2.0000     -15.845374      -431.1746 
   5   2.0000     -11.589604      -315.3692 
   6   2.0000     -11.446986      -311.4883 
   7   2.0000     -11.443235      -311.3863 
   8   2.0000     -11.442476      -311.3656 
   9   2.0000     -11.438588      -311.2598 
  10   2.0000     -11.389845      -309.9334 
  11   2.0000     -11.368510      -309.3529 
  12   2.0000     -11.368145      -309.3430 
  13   2.0000     -11.363921      -309.2280 
  14   2.0000     -11.361535      -309.1631 
  15   2.0000     -11.361323      -309.1573 
  16   2.0000     -11.358414      -309.0782 
  17   2.0000     -11.348542      -308.8095 
  18   2.0000     -11.348291      -308.8027 
  19   2.0000     -11.344080      -308.6881 
  20   2.0000     -11.343800      -308.6805 
  21   2.0000     -11.339085      -308.5522 
  22   2.0000      -1.808746       -49.2185 
  23   2.0000      -1.714269       -46.6476 
  24   2.0000      -1.709178       -46.5091 
  25   2.0000      -1.565320       -42.5945 
  26   2.0000      -1.481114       -40.3032 
  27   2.0000      -1.297166       -35.2977 
  28   2.0000      -1.278824       -34.7986 
  29   2.0000      -1.232745       -33.5447 
  30   2.0000      -1.178441       -32.0670 
  31   2.0000      -1.157189       -31.4887 
  32   2.0000      -1.151635       -31.3376 
  33   2.0000      -1.132535       -30.8179 
  34   2.0000      -1.127147       -30.6712 
  35   2.0000      -1.080078       -29.3904 
  36   2.0000      -1.049793       -28.5663 
  37   2.0000      -1.004356       -27.3299 
  38   2.0000      -0.977951       -26.6114 
  39   2.0000      -0.966826       -26.3087 
  40   2.0000      -0.943726       -25.6801 
  41   2.0000      -0.940104       -25.5815 
  42   2.0000      -0.913629       -24.8611 
  43   2.0000      -0.901188       -24.5226 
  44   2.0000      -0.898520       -24.4500 
  45   2.0000      -0.890584       -24.2340 
  46   2.0000      -0.879455       -23.9312 
  47   2.0000      -0.850171       -23.1343 
  48   2.0000      -0.834535       -22.7088 
  49   2.0000      -0.818559       -22.2741 
  50   2.0000      -0.796839       -21.6831 
  51   2.0000      -0.791258       -21.5312 
  52   2.0000      -0.787813       -21.4375 
  53   2.0000      -0.778135       -21.1741 
  54   2.0000      -0.766168       -20.8485 
  55   2.0000      -0.757927       -20.6242 
  56   2.0000      -0.750832       -20.4312 
  57   2.0000      -0.745119       -20.2757 
  58   2.0000      -0.740997       -20.1636 
  59   2.0000      -0.740582       -20.1523 
  60   2.0000      -0.738872       -20.1057 
  61   2.0000      -0.734172       -19.9778 
  62   2.0000      -0.726268       -19.7628 
  63   2.0000      -0.724858       -19.7244 
  64   2.0000      -0.716383       -19.4938 
  65   2.0000      -0.707793       -19.2600 
  66   2.0000      -0.702265       -19.1096 
  67   2.0000      -0.698594       -19.0097 
  68   2.0000      -0.675831       -18.3903 
  69   2.0000      -0.661165       -17.9912 
  70   2.0000      -0.654935       -17.8217 
  71   2.0000      -0.637633       -17.3509 
  72   2.0000      -0.623463       -16.9653 
  73   2.0000      -0.620306       -16.8794 
  74   2.0000      -0.607689       -16.5361 
  75   2.0000      -0.603251       -16.4153 
  76   2.0000      -0.598577       -16.2881 
  77   2.0000      -0.473451       -12.8833 
  78   2.0000      -0.457569       -12.4511 
  79   2.0000      -0.452642       -12.3170 
  80   2.0000      -0.449536       -12.2325 
  81   0.0000      -0.036142        -0.9835 
  82   0.0000      -0.009091        -0.2474 
  83   0.0000      -0.006631        -0.1805 
  84   0.0000       0.002935         0.0799 
  85   0.0000       0.005676         0.1544 
  86   0.0000       0.018998         0.5170 
  87   0.0000       0.023641         0.6433 
  88   0.0000       0.029136         0.7928 
  89   0.0000       0.043645         1.1876 
  90   0.0000       0.055138         1.5004 
  91   0.0000       0.061322         1.6687 
  92   0.0000       0.065997         1.7959 
  93   0.0000       0.069869         1.9012 
  94   0.0000       0.075830         2.0634 
  95   0.0000       0.085235         2.3194 
  96   0.0000       0.090227         2.4552 
  97   0.0000       0.096827         2.6348 
  98   0.0000       0.102360         2.7854 
  99   0.0000       0.108770         2.9598 
 100   0.0000       0.116989         3.1834 
 101   0.0000       0.124248         3.3810 
 102   0.0000       0.129492         3.5236 
 103   0.0000       0.131963         3.5909 
 104   0.0000       0.144208         3.9241 
 105   0.0000       0.155535         4.2323 
 106   0.0000       0.156568         4.2604 
 107   0.0000       0.161211         4.3868 
 108   0.0000       0.168420         4.5829 
 109   0.0000       0.176457         4.8016 
 110   0.0000       0.181519         4.9394 
 111   0.0000       0.187847         5.1116 
 112   0.0000       0.190353         5.1798 
 113   0.0000       0.195533         5.3207 
 114   0.0000       0.203068         5.5258 
 115   0.0000       0.203951         5.5498 
 116   0.0000       0.218390         5.9427 
 117   0.0000       0.219482         5.9724 
 118   0.0000       0.228358         6.2139 
 119   0.0000       0.231522         6.3000 
 120   0.0000       0.235042         6.3958 
 121   0.0000       0.238785         6.4977 
 122   0.0000       0.239647         6.5211 
 123   0.0000       0.245011         6.6671 
 124   0.0000       0.248779         6.7696 
 125   0.0000       0.254436         6.9236 
 126   0.0000       0.257533         7.0078 
 127   0.0000       0.262663         7.1474 
 128   0.0000       0.269141         7.3237 
 129   0.0000       0.277502         7.5512 
 130   0.0000       0.282811         7.6957 
 131   0.0000       0.289591         7.8802 
 132   0.0000       0.296713         8.0740 
 133   0.0000       0.301891         8.2149 
 134   0.0000       0.307977         8.3805 
 135   0.0000       0.314912         8.5692 
 136   0.0000       0.320579         8.7234 
 137   0.0000       0.329254         8.9595 
 138   0.0000       0.333943         9.0870 
 139   0.0000       0.337887         9.1944 
 140   0.0000       0.343106         9.3364 
 141   0.0000       0.348094         9.4721 
 142   0.0000       0.356897         9.7116 
 143   0.0000       0.361874         9.8471 
 144   0.0000       0.366113         9.9624 
 145   0.0000       0.370505        10.0820 
 146   0.0000       0.374472        10.1899 
 147   0.0000       0.384033        10.4501 
 148   0.0000       0.387207        10.5364 
 149   0.0000       0.390963        10.6386 
 150   0.0000       0.398616        10.8469 
 151   0.0000       0.399700        10.8764 
 152   0.0000       0.402624        10.9560 
 153   0.0000       0.405371        11.0307 
 154   0.0000       0.406597        11.0641 
 155   0.0000       0.407705        11.0942 
 156   0.0000       0.413415        11.2496 
 157   0.0000       0.418211        11.3801 
 158   0.0000       0.421944        11.4817 
 159   0.0000       0.429903        11.6982 
 160   0.0000       0.432382        11.7657 
 161   0.0000       0.436228        11.8704 
 162   0.0000       0.438123        11.9219 
 163   0.0000       0.447676        12.1819 
 164   0.0000       0.450395        12.2559 
 165   0.0000       0.451835        12.2951 
 166   0.0000       0.455495        12.3947 
 167   0.0000       0.467953        12.7336 
 168   0.0000       0.469680        12.7807 
 169   0.0000       0.471177        12.8214 
 170   0.0000       0.474406        12.9093 
 171   0.0000       0.480459        13.0739 
 172   0.0000       0.482726        13.1356 
 173   0.0000       0.485643        13.2150 
 174   0.0000       0.492415        13.3993 
 175   0.0000       0.497944        13.5498 
 176   0.0000       0.499570        13.5940 
 177   0.0000       0.503735        13.7073 
 178   0.0000       0.505074        13.7438 
 179   0.0000       0.507006        13.7963 
 180   0.0000       0.513405        13.9705 
 181   0.0000       0.521832        14.1998 
 182   0.0000       0.523741        14.2517 
 183   0.0000       0.528271        14.3750 
 184   0.0000       0.538047        14.6410 
 185   0.0000       0.544925        14.8282 
 186   0.0000       0.552229        15.0269 
 187   0.0000       0.554553        15.0902 
 188   0.0000       0.558569        15.1994 
 189   0.0000       0.571045        15.5389 
 190   0.0000       0.576057        15.6753 
 191   0.0000       0.585822        15.9410 
 192   0.0000       0.590348        16.0642 
 193   0.0000       0.592919        16.1341 
 194   0.0000       0.595732        16.2107 
 195   0.0000       0.607433        16.5291 
 196   0.0000       0.615827        16.7575 
 197   0.0000       0.621726        16.9180 
 198   0.0000       0.635780        17.3005 
 199   0.0000       0.637318        17.3423 
 200   0.0000       0.642647        17.4873 
 201   0.0000       0.650326        17.6963 
 202   0.0000       0.668050        18.1786 
 203   0.0000       0.678428        18.4610 
 204   0.0000       0.681279        18.5385 
 205   0.0000       0.682220        18.5641 
 206   0.0000       0.695217        18.9178 
 207   0.0000       0.699986        19.0476 
 208   0.0000       0.706408        19.2223 
 209   0.0000       0.712643        19.3920 
 210   0.0000       0.725666        19.7464 
 211   0.0000       0.728715        19.8294 
 212   0.0000       0.735085        20.0027 
 213   0.0000       0.743793        20.2396 
 214   0.0000       0.746859        20.3231 
 215   0.0000       0.754571        20.5329 
 216   0.0000       0.760631        20.6978 
 217   0.0000       0.769492        20.9389 
 218   0.0000       0.775035        21.0898 
 219   0.0000       0.784197        21.3391 
 220   0.0000       0.789848        21.4928 
 221   0.0000       0.793340        21.5879 
 222   0.0000       0.794845        21.6288 
 223   0.0000       0.800707        21.7883 
 224   0.0000       0.808341        21.9961 
 225   0.0000       0.810069        22.0431 
 226   0.0000       0.814442        22.1621 
 227   0.0000       0.820880        22.3373 
 228   0.0000       0.828005        22.5312 
 229   0.0000       0.837020        22.7765 
 230   0.0000       0.844484        22.9796 
 231   0.0000       0.847149        23.0521 
 232   0.0000       0.852716        23.2036 
 233   0.0000       0.853665        23.2294 
 234   0.0000       0.861836        23.4518 
 235   0.0000       0.866058        23.5666 
 236   0.0000       0.874182        23.7877 
 237   0.0000       0.882689        24.0192 
 238   0.0000       0.887770        24.1574 
 239   0.0000       0.897017        24.4091 
 240   0.0000       0.902645        24.5622 
 241   0.0000       0.905693        24.6452 
 242   0.0000       0.909505        24.7489 
 243   0.0000       0.916187        24.9307 
 244   0.0000       0.919334        25.0164 
 245   0.0000       0.927826        25.2474 
 246   0.0000       0.931341        25.3431 
 247   0.0000       0.935522        25.4569 
 248   0.0000       0.947539        25.7838 
 249   0.0000       0.951428        25.8897 
 250   0.0000       0.957354        26.0509 
 251   0.0000       0.963253        26.2114 
 252   0.0000       0.970235        26.4014 
 253   0.0000       0.977383        26.5960 
 254   0.0000       0.987993        26.8847 
 255   0.0000       0.991913        26.9913 
 256   0.0000       0.998455        27.1694 
 257   0.0000       1.007555        27.4170 
 258   0.0000       1.017249        27.6807 
 259   0.0000       1.021010        27.7831 
 260   0.0000       1.028269        27.9806 
 261   0.0000       1.032418        28.0935 
 262   0.0000       1.047369        28.5004 
 263   0.0000       1.051970        28.6256 
 264   0.0000       1.055034        28.7089 
 265   0.0000       1.062095        28.9011 
 266   0.0000       1.066375        29.0175 
 267   0.0000       1.071429        29.1551 
 268   0.0000       1.079454        29.3734 
 269   0.0000       1.084633        29.5144 
 270   0.0000       1.086351        29.5611 
 271   0.0000       1.095320        29.8052 
 272   0.0000       1.098234        29.8845 
 273   0.0000       1.108189        30.1554 
 274   0.0000       1.109092        30.1799 
 275   0.0000       1.118207        30.4280 
 276   0.0000       1.128661        30.7124 
 277   0.0000       1.132974        30.8298 
 278   0.0000       1.135653        30.9027 
 279   0.0000       1.143530        31.1170 
 280   0.0000       1.150129        31.2966 
 281   0.0000       1.154984        31.4287 
 282   0.0000       1.157240        31.4901 
 283   0.0000       1.168128        31.7864 
 284   0.0000       1.177270        32.0351 
 285   0.0000       1.180793        32.1310 
 286   0.0000       1.188242        32.3337 
 287   0.0000       1.192730        32.4558 
 288   0.0000       1.202999        32.7353 
 289   0.0000       1.203227        32.7415 
 290   0.0000       1.204946        32.7882 
 291   0.0000       1.223190        33.2847 
 292   0.0000       1.227635        33.4056 
 293   0.0000       1.233137        33.5554 
 294   0.0000       1.237510        33.6744 
 295   0.0000       1.243017        33.8242 
 296   0.0000       1.252316        34.0773 
 297   0.0000       1.258844        34.2549 
 298   0.0000       1.263189        34.3731 
 299   0.0000       1.270638        34.5758 
 300   0.0000       1.278045        34.7774 
 301   0.0000       1.281689        34.8765 
 302   0.0000       1.288503        35.0620 
 303   0.0000       1.302229        35.4354 
 304   0.0000       1.306854        35.5613 
 305   0.0000       1.309126        35.6231 
 306   0.0000       1.319732        35.9117 
 307   0.0000       1.326859        36.1057 
 308   0.0000       1.330317        36.1998 
 309   0.0000       1.338388        36.4194 
 310   0.0000       1.340613        36.4799 
 311   0.0000       1.353371        36.8271 
 312   0.0000       1.356670        36.9169 
 313   0.0000       1.370217        37.2855 
 314   0.0000       1.379871        37.5482 
 315   0.0000       1.386498        37.7285 
 316   0.0000       1.395660        37.9778 
 317   0.0000       1.401365        38.1331 
 318   0.0000       1.404026        38.2055 
 319   0.0000       1.414943        38.5026 
 320   0.0000       1.421874        38.6912 
 321   0.0000       1.425338        38.7854 
 322   0.0000       1.429022        38.8857 
 323   0.0000       1.441897        39.2360 
 324   0.0000       1.445674        39.3388 
 325   0.0000       1.449377        39.4396 
 326   0.0000       1.456391        39.6304 
 327   0.0000       1.464679        39.8559 
 328   0.0000       1.467833        39.9418 
 329   0.0000       1.473445        40.0945 
 330   0.0000       1.475891        40.1610 
 331   0.0000       1.484466        40.3944 
 332   0.0000       1.489356        40.5274 
 333   0.0000       1.494025        40.6545 
 334   0.0000       1.498429        40.7743 
 335   0.0000       1.505584        40.9690 
 336   0.0000       1.511078        41.1185 
 337   0.0000       1.523060        41.4446 
 338   0.0000       1.526033        41.5255 
 339   0.0000       1.531371        41.6707 
 340   0.0000       1.543531        42.0016 
 341   0.0000       1.547539        42.1107 
 342   0.0000       1.550329        42.1866 
 343   0.0000       1.560335        42.4589 
 344   0.0000       1.563174        42.5361 
 345   0.0000       1.576655        42.9030 
 346   0.0000       1.586879        43.1812 
 347   0.0000       1.592452        43.3328 
 348   0.0000       1.600639        43.5556 
 349   0.0000       1.612186        43.8698 
 350   0.0000       1.617425        44.0124 
 351   0.0000       1.623180        44.1690 
 352   0.0000       1.626325        44.2546 
 353   0.0000       1.632663        44.4270 
 354   0.0000       1.638088        44.5747 
 355   0.0000       1.647607        44.8337 
 356   0.0000       1.658401        45.1274 
 357   0.0000       1.666272        45.3416 
 358   0.0000       1.673522        45.5389 
 359   0.0000       1.685828        45.8737 
 360   0.0000       1.694874        46.1199 
 361   0.0000       1.699562        46.2474 
 362   0.0000       1.701318        46.2952 
 363   0.0000       1.704153        46.3724 
 364   0.0000       1.712185        46.5909 
 365   0.0000       1.722593        46.8741 
 366   0.0000       1.730387        47.0862 
 367   0.0000       1.732099        47.1328 
 368   0.0000       1.738943        47.3191 
 369   0.0000       1.749303        47.6009 
 370   0.0000       1.756853        47.8064 
 371   0.0000       1.763362        47.9835 
 372   0.0000       1.773863        48.2693 
 373   0.0000       1.786066        48.6013 
 374   0.0000       1.791183        48.7406 
 375   0.0000       1.802774        49.0560 
 376   0.0000       1.812583        49.3229 
 377   0.0000       1.823063        49.6081 
 378   0.0000       1.831756        49.8446 
 379   0.0000       1.841519        50.1103 
 380   0.0000       1.849586        50.3298 
 381   0.0000       1.860198        50.6186 
 382   0.0000       1.875572        51.0369 
 383   0.0000       1.882096        51.2144 
 384   0.0000       1.892779        51.5051 
 385   0.0000       1.905576        51.8534 
 386   0.0000       1.915333        52.1188 
 387   0.0000       1.923631        52.3447 
 388   0.0000       1.929074        52.4928 
 389   0.0000       1.934175        52.6316 
 390   0.0000       1.942952        52.8704 
 391   0.0000       1.948921        53.0328 
 392   0.0000       1.958784        53.3012 
 393   0.0000       1.965597        53.4866 
 394   0.0000       1.976351        53.7792 
 395   0.0000       1.989163        54.1279 
 396   0.0000       1.998784        54.3897 
 397   0.0000       2.010834        54.7176 
 398   0.0000       2.018978        54.9392 
 399   0.0000       2.032992        55.3205 
 400   0.0000       2.044572        55.6356 
 401   0.0000       2.066768        56.2396 
 402   0.0000       2.079120        56.5757 
 403   0.0000       2.088512        56.8313 
 404   0.0000       2.103995        57.2526 
 405   0.0000       2.113810        57.5197 
 406   0.0000       2.119351        57.6705 
 407   0.0000       2.128029        57.9066 
 408   0.0000       2.146130        58.3992 
 409   0.0000       2.157283        58.7027 
 410   0.0000       2.167132        58.9707 
 411   0.0000       2.170405        59.0597 
 412   0.0000       2.190222        59.5990 
 413   0.0000       2.191763        59.6409 
 414   0.0000       2.195693        59.7479 
 415   0.0000       2.213757        60.2394 
 416   0.0000       2.219631        60.3992 
 417   0.0000       2.229326        60.6630 
 418   0.0000       2.242913        61.0328 
 419   0.0000       2.249306        61.2067 
 420   0.0000       2.261567        61.5404 
 421   0.0000       2.272160        61.8286 
 422   0.0000       2.273580        61.8672 
 423   0.0000       2.285277        62.1855 
 424   0.0000       2.298267        62.5390 
 425   0.0000       2.315279        63.0019 
 426   0.0000       2.329148        63.3793 
 427   0.0000       2.341956        63.7279 
 428   0.0000       2.358026        64.1651 
 429   0.0000       2.359501        64.2053 
 430   0.0000       2.370871        64.5147 
 431   0.0000       2.382866        64.8411 
 432   0.0000       2.387432        64.9653 
 433   0.0000       2.416823        65.7651 
 434   0.0000       2.427954        66.0680 
 435   0.0000       2.434737        66.2526 
 436   0.0000       2.441216        66.4289 
 437   0.0000       2.453263        66.7567 
 438   0.0000       2.471081        67.2415 
 439   0.0000       2.494262        67.8723 
 440   0.0000       2.502679        68.1014 
 441   0.0000       2.507176        68.2237 
 442   0.0000       2.517265        68.4983 
 443   0.0000       2.521991        68.6269 
 444   0.0000       2.550654        69.4068 
 445   0.0000       2.552057        69.4450 
 446   0.0000       2.560881        69.6851 
 447   0.0000       2.567308        69.8600 
 448   0.0000       2.590801        70.4993 
 449   0.0000       2.593712        70.5785 
 450   0.0000       2.596816        70.6630 
 451   0.0000       2.599018        70.7229 
 452   0.0000       2.607105        70.9429 
 453   0.0000       2.623049        71.3768 
 454   0.0000       2.623686        71.3941 
 455   0.0000       2.632683        71.6389 
 456   0.0000       2.642979        71.9191 
 457   0.0000       2.651090        72.1398 
 458   0.0000       2.667034        72.5737 
 459   0.0000       2.693658        73.2982 
 460   0.0000       2.702256        73.5321 
 461   0.0000       2.710748        73.7632 
 462   0.0000       2.716548        73.9210 
 463   0.0000       2.729221        74.2659 
 464   0.0000       2.742803        74.6355 
 465   0.0000       2.757643        75.0393 
 466   0.0000       2.760080        75.1056 
 467   0.0000       2.772478        75.4430 
 468   0.0000       2.777817        75.5882 
 469   0.0000       2.787010        75.8384 
 470   0.0000       2.796861        76.1065 
 471   0.0000       2.803358        76.2833 
 472   0.0000       2.810631        76.4812 
 473   0.0000       2.838278        77.2335 
 474   0.0000       2.842324        77.3436 
 475   0.0000       2.852648        77.6245 
 476   0.0000       2.866183        77.9928 
 477   0.0000       2.870251        78.1035 
 478   0.0000       2.881885        78.4201 
 479   0.0000       2.887071        78.5612 
 480   0.0000       2.895152        78.7811 
 481   0.0000       2.903484        79.0078 
 482   0.0000       2.910361        79.1950 
 483   0.0000       2.915120        79.3244 
 484   0.0000       2.920544        79.4720 
 485   0.0000       2.926258        79.6275 
 486   0.0000       2.930817        79.7516 
 487   0.0000       2.939564        79.9896 
 488   0.0000       2.944251        80.1171 
 489   0.0000       2.954854        80.4057 
 490   0.0000       2.957860        80.4875 
 491   0.0000       2.963533        80.6418 
 492   0.0000       2.975557        80.9690 
 493   0.0000       2.981213        81.1229 
 494   0.0000       2.986091        81.2557 
 495   0.0000       2.992589        81.4325 
 496   0.0000       3.001411        81.6725 
 497   0.0000       3.007191        81.8298 
 498   0.0000       3.014564        82.0305 
 499   0.0000       3.021993        82.2326 
 500   0.0000       3.027770        82.3898 
 501   0.0000       3.031080        82.4799 
 502   0.0000       3.037572        82.6565 
 503   0.0000       3.043327        82.8131 
 504   0.0000       3.046752        82.9063 
 505   0.0000       3.049746        82.9878 
 506   0.0000       3.059978        83.2662 
 507   0.0000       3.069913        83.5366 
 508   0.0000       3.081208        83.8439 
 509   0.0000       3.082466        83.8782 
 510   0.0000       3.088796        84.0504 
 511   0.0000       3.099379        84.3384 
 512   0.0000       3.111148        84.6586 
 513   0.0000       3.119932        84.8977 
 514   0.0000       3.127931        85.1153 
 515   0.0000       3.132871        85.2497 
 516   0.0000       3.138016        85.3898 
 517   0.0000       3.144796        85.5743 
 518   0.0000       3.151720        85.7627 
 519   0.0000       3.160994        86.0150 
 520   0.0000       3.161727        86.0350 
 521   0.0000       3.172412        86.3257 
 522   0.0000       3.180401        86.5431 
 523   0.0000       3.186819        86.7177 
 524   0.0000       3.191152        86.8357 
 525   0.0000       3.194455        86.9255 
 526   0.0000       3.199362        87.0591 
 527   0.0000       3.207370        87.2770 
 528   0.0000       3.218129        87.5697 
[...]
sum of MP2 pair energies for pairs that were not kept ...      -0.016955017400 Eh
sum of PNO error estimates for the kept pairs         ...      -0.011693178115 Eh
                                                          --------------------
sum of all corrections                                         -0.028649610718
Initial total correlation energy                               -3.747476622924
Thresholds for map construction and integral transformation for fine MP2 and CCSD(T) calculation:
   TCutMKN   ...     1.0e-03
   TCutDO    ...     1.0e-02
   TCutPairs ...     1.0e-04
   TCutCMO   ...     1.0e-03
   TCutCPAO  ...     1.0e-03

Thresholds for map construction and integral transformation for strong Triples:
   TCutMKN   ...     1.0e-02
   TCutDO    ...     2.0e-02
   TCutCMO   ...     1.0e-03
   TCutCPAO  ...     1.0e-03

Thresholds for map construction and integral transformation for weak Triples:
   TCutMKN   ...     1.0e-01
   TCutDO    ...     4.0e-02
   TCutCMO   ...     1.0e-03
   TCutCPAO  ...     1.0e-03

--------------------------------
LOCAL RI TRANSFORMATION (IAVPAO)
--------------------------------

Orbital window:      22 to 80
Number of PAOs:     948
Basis functions:    948 (356 shells)
Aux. functions:    2242 (674 shells)
Use SHARK:           on

Processing maps (0.0 sec)
Average map sizes:
   Aux shells -> MOs              47.0
   Aux shells -> PAOs            948.0
   MOs        -> AO shells       292.3
   PAOs       -> AO shells       337.5

Calculating integrals (5.3 sec, 764.258 MB)
Sorting integrals (1.0 sec, 764.233 MB)
Total time for the integral transformation: 6.3 sec
--------------------------------
INITIAL GUESS AND PNO GENERATION
--------------------------------

PNO truncation parameters                   .... 
    PAOOverlapThresh   =        1.000e-08

    TCutPairs          =        1.000e-04
    TCutPNO            =        3.330e-07
    TCutPNOSingles     =        9.990e-09
    TCutMP2Pairs       =        1.000e-05
    TCutMKN            =        1.000e-03
    TCutDO             =        1.000e-02

Pair selection                          .... not used
Type of local MP2 treatment                 .... semi-local MP2
Strategy for PNO selection                  .... occupation number selection
Pair density normalization                  .... MP2 norm
Spin component scaling                      .... not used

   .... Finished loop over pairs

 PNO Occupation Number Statistics: 
  | Av. % of trace(Dij) retained        ...  97.515381579230
  | sigma^2 in % of trace(Dij) retained ...   6.15e+00
  | Av. % of trace(Di) retained         ...  99.998955592562
  | sigma^2 in % of trace(Di) retained  ...   1.57e-07
 Distributions of % trace(Dij) recovered:
  |       >= 99.9  ...   174 ( 16.6 % of all pairs)
  |   [80.0, 90.0) ...    13 (  1.2 % of all pairs)
  |   [90.0, 99.0) ...   640 ( 61.2 % of all pairs)
  |   [99.0, 99.9) ...   219 ( 20.9 % of all pairs)
 Distributions of % trace(Di) recovered :
  |       >= 99.9  ...    59 (100.0 % of all I-pairs )

Making pair pair interaction lists          ... done

                       ===========================
                        635 OF 1046 PAIRS ARE KEPT
                       ===========================

Total time spent in the initial guess                 ...    44.486 sec
SL-MP2 correlation energy (all non-screened pairs)    ...      -3.748831185001 Eh

Initial PNO correlation energy                        ...      -3.721650693828 Eh
sum of pair energies estimated for screened out pairs ...      -0.001485052731 Eh
sum of MP2 pair energies for pairs that were not kept ...      -0.015497154122 Eh
sum of PNO error estimates for the kept pairs         ...      -0.011777889896 Eh
                                                          --------------------
sum of all corrections                                         -0.028760096749
Initial total correlation energy                               -3.750410790577
Thresholds for map construction and integral transformation for fine MP2 and CCSD(T) calculation:
   TCutMKN   ...     1.0e-03
   TCutDO    ...     1.0e-02
   TCutPairs ...     1.0e-04
   TCutCMO   ...     1.0e-03
   TCutCPAO  ...     1.0e-03

Time for aux screen maps:            0.008
Time for maps after fine MP2:            0.042
-----------------------------
LOCAL RI TRANSFORMATION (IJV)
-----------------------------

Orbital window:      22 to 80
Basis functions:    948 (356 shells)
Aux. functions:    2242 (674 shells)
Use SHARK:           on

Processing maps (0.0 sec)
Average map sizes:
   Aux shells -> MOs(i)           39.4
   Aux shells -> MOs(j)           59.0
   MOs        -> AO shells       292.3

Calculating integrals (4.2 sec, 40.023 MB)
Sorting integrals (0.1 sec, 39.998 MB)
Total time for the integral transformation: 4.3 sec
--------------------------------
LOCAL RI TRANSFORMATION (VABPAO)
--------------------------------

Number of PAOs:     948
Basis functions:    948 (356 shells)
Aux. functions:    2242 (674 shells)
Use SHARK:           on

Processing maps (0.0 sec)
Average map sizes:
   Aux shells -> PAOs            873.5
   PAOs       -> AO shells       337.5

Calculating integrals (26.3 sec, 13271.552 MB)
Finished


-------------------------------------
Pair Pair Term precalculation with     
RI-(ij|mn) and (im|jn) transformation  
ON THE FLY                             
-------------------------------------

   IBatch   1 (of   7)              ... done (   22.231 sec)
   IBatch   2 (of   7)              ... done (   26.736 sec)
   IBatch   3 (of   7)              ... done (   43.768 sec)
   IBatch   4 (of   7)              ... done (   43.257 sec)
   IBatch   5 (of   7)              ... done (   45.645 sec)
   IBatch   6 (of   7)              ... done (   61.655 sec)
   IBatch   7 (of   7)              ... done (   22.958 sec)
Total EXT                           ...         266.251 sec

---------------------
RI-PNO TRANSFORMATION
---------------------

Total Number of PNOs                   ... 20210
Average number of PNOs per pair        ...    31
Maximal number of PNOs per pair        ...    80
   #pairs with  1 -  5 PNOs   :    0
   #pairs with  6 - 10 PNOs   :   39
   #pairs with 11 - 15 PNOs   :   78
   #pairs with 16 - 20 PNOs   :   92
   #pairs with 21 - 25 PNOs   :   58
   #pairs with 26 - 30 PNOs   :   54
   #pairs with 31 - 35 PNOs   :   83
   #pairs with 36 - 40 PNOs   :   47
   #pairs with 41 - 45 PNOs   :   47
   #pairs with 46 - 50 PNOs   :   40
   #pairs with 51 - 55 PNOs   :   36
   #pairs with 56 - 60 PNOs   :   20
   #pairs with 61 - 65 PNOs   :    8
   #pairs with 66 - 70 PNOs   :    6
   #pairs with 71 - 75 PNOs   :   18
   #pairs with 76 - 80 PNOs   :    9

Generation of (ij|ab)[P] integrals            ... on
Generation of (ia|bc)[P],(ja|bc)[P] integrals ... on
Storage of 3 and 4 external integrals         ... on
Generation of ALL (ka|bc)[P] integrals        ... on
Keep RI integrals in memory                   ... off

Ibatch:  1 (of  1)
Starting 2-4 index PNO integral generation ... done

Timings:
Total PNO integral transformation time     ...        109.234 sec
Size of the 3-external file                ...       315 MB
Size of the 4-external file                ...      2207 MB
Size of the IKJL file                      ...         0 MB
Size of the all 3-external file            ...      7469 MB
Size of the 1-external file                ...        22 MB

Making pair/pair overlap matrices          ... done (   25.430 sec)
Size of the pair overlap file              ... 2046 MB
Redoing the guess amplitudes               ... done (    0.012 sec)

-------------------------
FINAL STARTUP INFORMATION
-------------------------

E(0)                                       ...  -1082.673410995
E(SL-MP2)                                  ...     -3.748831185
E(SL-MP2) including corrections            ...     -3.750410791
Initial E(tot)                             ...  -1086.423821786
<T|T>                                      ...      0.993696003
Number of pairs included                   ... 635
Total number of pairs                      ... 1770

------------------------------------------------
                  RHF COUPLED CLUSTER ITERATIONS
------------------------------------------------

Number of PNO amplitudes to be optimized   ...       829950
Number of non-PNO amplitudes               ...    477322515
Untruncated number of regular amplitudes   ...   1330489530

Iter       E(tot)           E(Corr)          Delta-E          Residual     Time
  0  -1086.423906146     -3.721735054      0.027096131      0.020066027   31.06
                           *** Turning on DIIS ***
  1  -1086.546026717     -3.843855626     -0.122120572      0.012738493   31.17
  2  -1086.633705625     -3.931534534     -0.087678908      0.003337511   30.64
  3  -1086.649765770     -3.947594678     -0.016060144      0.001981457   31.45
  4  -1086.654555639     -3.952384547     -0.004789869      0.001057689   30.96
  5  -1086.655988150     -3.953817058     -0.001432511      0.000452137   31.41
  6  -1086.656349885     -3.954178793     -0.000361735      0.000165589   31.98
  7  -1086.656407350     -3.954236258     -0.000057465      0.000090265   31.96
  8  -1086.656430716     -3.954259624     -0.000023366      0.000057363   30.88
  9  -1086.656417833     -3.954246741      0.000012883      0.000034701   31.19
 10  -1086.656422553     -3.954251461     -0.000004720      0.000016228   30.38
 11  -1086.656420670     -3.954249578      0.000001883      0.000005377   31.88
 12  -1086.656421058     -3.954249966     -0.000000388      0.000001639   31.60
 13  -1086.656420726     -3.954249635      0.000000331      0.000000584   30.99
               --- The Coupled-Cluster iterations have converged ---

----------------------
COUPLED CLUSTER ENERGY
----------------------

E(0)                                       ...  -1082.673410995
E(CORR)(strong-pairs)                      ...     -3.954249635
E(CORR)(weak-pairs)                        ...     -0.028760097
E(CORR)(corrected)                         ...     -3.983009731
E(TOT)                                     ...  -1086.656420726
Singles Norm <S|S>**1/2                    ...      0.108818331  
T1 diagnostic                              ...      0.010017539  

------------------
LARGEST AMPLITUDES
------------------
  58-> 83  58-> 83       0.053166
  60-> 81  60-> 81       0.052439
  59-> 81  59-> 81       0.052298
  61-> 81  61-> 81       0.052101
  47-> 81  47-> 81       0.051833
  33-> 81  33-> 81       0.049738
  34-> 81  34-> 81       0.049594
  37-> 83  37-> 83       0.045125
  80-> 81  80-> 81       0.044235
  48-> 82  48-> 82       0.044065
  35-> 83  35-> 83       0.039221
  65-> 81  65-> 81       0.039207
  74-> 85  74-> 85       0.038786
  39-> 81  39-> 81       0.038609
  73-> 85  73-> 85       0.038492
  51-> 81  51-> 81       0.038389


-------------------------------------------
DLPNO BASED TRIPLES CORRECTION
-------------------------------------------

Singles multiplier          ...  1.000000
TCutTNO                     ... 1.000e-09
TCutMP2Pairs                ... 1.000e-05
TCutDOStrong                ... 2.000e-02
TCutMKNStrong               ... 1.000e-02
TCutDOWeak                  ... 4.000e-02
TCutMKNWeak                 ... 1.000e-01

Fragment selection                          .... not used
Fock matrix occ-virt block is zero --> Setting DT_in_Triples to false.
Number of Triples that are to be computed   ...      6546

 . . . . . . . . .
10% done               (    123.884 sec)
 . . . . . . . . .
20% done  
30% done               (    147.305 sec)
 . . . . . . . . .
40% done  
50% done               (    153.668 sec)
 . . . . . . . . .
60% done  
70% done  
80% done               (    210.203 sec)
 . . . . . . . . .
90% done               (     54.552 sec)
Triples timings:
Total time for T0               ...   755.307 sec
Total time for Iterative (T)    ...     0.000 sec
Total time of overall (T)       ...   803.259 sec

Triples List generation         ...     0.000 sec
TNO generation                  ...    65.632 sec
Pair density generation         ...     0.036 sec
Look up tables                  ...     0.000 sec
Generating 3-index integrals    ...   486.563 sec
  Make 4-ind.int. from 3-ind.int...    34.249 sec
  Projecting amplitudes (D + S) ...   128.743 sec
  Downprojecting integrals      ...     0.004 sec
  Energy contr. (sum over a,b,c)...     7.584 sec
Fitting ET(->0)                 ...     0.000 sec

Everything after 3-index        ...   203.049 sec

Timing details:
 TNO integrals                  ...   518.646 sec
   Reading 3-index integrals    ...    24.372 sec
   Sorting integrals            ...    57.812 sec
       Sorting integrals 1      ...     0.004 sec
       Sorting integrals 2      ...    49.523 sec
       Sorting integrals 3      ...     1.667 sec
       Sorting integrals 4      ...     0.154 sec
       Sorting integrals 5      ...     0.630 sec
       Sorting integrals 6      ...     5.834 sec
   Calculating local VM**-1/2   ...     1.821 sec
   Orthogonal. integrals        ...     3.597 sec
   Multipl. 3-index integrals   ...   431.045 sec
   All concerning IRIab (w/TNO) ...    21.414 sec

 Calculate W0/W1                ...    32.443 sec
 W 3-ext contribution           ...    19.068 sec
 W 3-int contribution           ...     7.353 sec
 Sorting W                      ...     5.439 sec

 V exchange contribution        ...     3.078 sec

 Timings for Triples without generation
     of 3-index integrals       ...   203.034 sec
       0 weak pairs             ...   146.534 sec
       1 weak pair              ...    56.500 sec
       2 weak pairs             ...     0.000 sec
       3 weak pairs             ...     0.000 sec
  Extra time for extrapolation  ...     0.000 sec

Number of Triples   (0, 1, 2, 3 weak pairs; overall):   3883    2663       0       0  (  6546)
Number of Atoms     (0, 1, 2, 3 weak pairs; overall):   16.4    14.6     0.0     0.0  (    41)
Number of PAOs      (0, 1, 2, 3 weak pairs; overall):  410.0   373.0     0.0     0.0  (   948)
Number of AuxFcns   (0, 1, 2, 3 weak pairs; overall):  485.3   367.5     0.0     0.0  (  2242)
Number of TNOs      (0, 1, 2, 3 weak pairs         ):   85.9    60.2     0.0     0.0
Aver. Number of NTNO, Atoms, PAOs, AuxFcns / Triples:   6546    75.4    15.7   395.0   437.4

Triples Correction (T)                     ...     -0.169380043
Final correlation energy                   ...     -4.152389774
E(CCSD)                                    ...  -1086.656420726
E(CCSD(T))                                 ...  -1086.825800769



--------------------------------------------------------------------------------
                                    TIMINGS
--------------------------------------------------------------------------------


Total execution time                   ...     1956.515 sec

Localization of occupied MO's          ...        3.187 sec (  0.2%)
Fock Matrix Formation                  ...      156.885 sec (  8.0%)
Global overlap, Fock, MKN matrices     ...        1.074 sec (  0.1%)
Differential overlap integrals         ...        2.897 sec (  0.1%)
Organizing maps                        ...        0.125 sec (  0.0%)
RI 3-index integral generations        ...       43.624 sec (  2.2%)
RI-PNO integral transformation         ...      428.332 sec ( 21.9%)
Initial Guess                          ...       79.138 sec (  4.0%)
DIIS Solver                            ...        1.409 sec (  0.1%)
State Vector Update                    ...        0.047 sec (  0.0%)
Sigma-vector construction              ...      436.078 sec ( 22.3%)
  <0|H|D>                              ...        0.001 sec (  0.0% of sigma)
  <D|H|D>(0-ext)                       ...       34.353 sec (  7.9% of sigma)
  <D|H|D>(2-ext Fock)                  ...        0.089 sec (  0.0% of sigma)
  <D|H|D>(2-ext)                       ...       67.747 sec ( 15.5% of sigma)
  <D|H|D>(4-ext)                       ...       20.130 sec (  4.6% of sigma)
  <D|H|D>(4-ext-corr)                  ...      118.521 sec ( 27.2% of sigma)
  CCSD doubles correction              ...        1.457 sec (  0.3% of sigma)
  <S|H|S>                              ...        4.973 sec (  1.1% of sigma)
  <S|H|D>(1-ext)                       ...        4.506 sec (  1.0% of sigma)
  <D|H|S>(1-ext)                       ...        0.079 sec (  0.0% of sigma)
  <S|H|D>(3-ext)                       ...        0.751 sec (  0.2% of sigma)
  CCSD singles correction              ...        0.003 sec (  0.0% of sigma)
  Fock-dressing                        ...       76.691 sec ( 17.6% of sigma)
  Singles amplitudes                   ...        5.995 sec (  1.4% of sigma)
  (ik|jl)-dressing                     ...       48.167 sec ( 11.0% of sigma)
  (ij|ab),(ia|jb)-dressing             ...       12.327 sec (  2.8% of sigma)
  Pair energies                        ...        0.022 sec (  0.0% of sigma)
Total Time for computing (T)           ...      803.267 sec ( 41.1% of ALL)


Maximum memory used throughout the entire MDCI-calculation: 3430.9 MB

-------------------------   --------------------
FINAL SINGLE POINT ENERGY     -1086.825800769214
-------------------------   --------------------


                            ***************************************
                            *     ORCA property calculations      *
                            ***************************************


  WARNING: The energy has been calculated at the MDCI level but the densities
           used in the property calculations are still SCF densities
           MDCI response densities have not been calculated 
           use %mdci Density linearized end
           or  %mdci Density unrelaxed end
           or  %mdci Density orbopt end

                                    ---------------------
                                    Active property flags
                                    ---------------------
   (+) Dipole Moment


------------------------------------------------------------------------------
                       ORCA ELECTRIC PROPERTIES CALCULATION
------------------------------------------------------------------------------

Dipole Moment Calculation                       ... on
Quadrupole Moment Calculation                   ... off
Polarizability Calculation                      ... off
GBWName                                         ... Fluoxetine_18.gbw
Electron density                                ... Fluoxetine_18.scfp
The origin for moment calculation is the CENTER OF MASS  = (-0.092595,  0.119607 -0.016515)

-------------
DIPOLE MOMENT
-------------
                                X             Y             Z
Electronic contribution:     42.08201       1.93622       0.47331
Nuclear contribution   :    -46.98328       0.01846      -1.03770
                        -----------------------------------------
Total Dipole Moment    :     -4.90127       1.95468      -0.56439
                        -----------------------------------------
Magnitude (a.u.)       :      5.30677
Magnitude (Debye)      :     13.48873



--------------------
Rotational spectrum 
--------------------
 
Rotational constants in cm-1:     0.021932     0.003924     0.003752 
Rotational constants in MHz :   657.513477   117.635587   112.483240 

 Dipole components along the rotational axes: 
x,y,z [a.u.] :     4.090387    -3.379269     0.105134 
x,y,z [Debye]:    10.396938    -8.589418     0.267230 

 

Timings for individual modules:

Sum of individual times         ...     3310.885 sec (=  55.181 min)
GTO integral calculation        ...        2.581 sec (=   0.043 min)   0.1 %
SCF iterations                  ...     1350.027 sec (=  22.500 min)  40.8 %
MDCI module                     ...     1958.277 sec (=  32.638 min)  59.1 %
                             ****ORCA TERMINATED NORMALLY****
TOTAL RUN TIME: 0 days 0 hours 55 minutes 13 seconds 127 msec
