
Lmod is automatically replacing "intel/2020.1.217" with "gcc/10.3.0".


Due to MODULEPATH changes, the following have been reloaded:
  1) blis/0.8.1     2) flexiblas/3.0.4

The following have been reloaded with a version change:
  1) gcccore/.9.3.0 => gcccore/.10.3.0        3) openmpi/4.0.3 => openmpi/4.1.1
  2) libfabric/1.10.1 => libfabric/1.12.1     4) ucx/1.8.0 => ucx/1.9.0

To execute ORCA, run: 
   ${EBROOTORCA}/orca orca.inp > orca.out

                                 *****************
                                 * O   R   C   A *
                                 *****************

                                            #,                                       
                                            ###                                      
                                            ####                                     
                                            #####                                    
                                            ######                                   
                                           ########,                                 
                                     ,,################,,,,,                         
                               ,,#################################,,                 
                          ,,##########################################,,             
                       ,#########################################, ''#####,          
                    ,#############################################,,   '####,        
                  ,##################################################,,,,####,       
                ,###########''''           ''''###############################       
              ,#####''   ,,,,##########,,,,          '''####'''          '####       
            ,##' ,,,,###########################,,,                        '##       
           ' ,,###''''                  '''############,,,                           
         ,,##''                                '''############,,,,        ,,,,,,###''
      ,#''                                            '''#######################'''  
     '                                                          ''''####''''         
             ,#######,   #######,   ,#######,      ##                                
            ,#'     '#,  ##    ##  ,#'     '#,    #''#        ######   ,####,        
            ##       ##  ##   ,#'  ##            #'  '#       #        #'  '#        
            ##       ##  #######   ##           ,######,      #####,   #    #        
            '#,     ,#'  ##    ##  '#,     ,#' ,#      #,         ##   #,  ,#        
             '#######'   ##     ##  '#######'  #'      '#     #####' # '####'        



                  #######################################################
                  #                        -***-                        #
                  #          Department of theory and spectroscopy      #
                  #    Directorship and core code : Frank Neese         #
                  #        Max Planck Institute fuer Kohlenforschung    #
                  #                Kaiser Wilhelm Platz 1               #
                  #                 D-45470 Muelheim/Ruhr               #
                  #                      Germany                        #
                  #                                                     #
                  #                  All rights reserved                #
                  #                        -***-                        #
                  #######################################################


                         Program Version 5.0.3 -  RELEASE  -


 With contributions from (in alphabetic order):
   Daniel Aravena         : Magnetic Suceptibility
   Michael Atanasov       : Ab Initio Ligand Field Theory (pilot matlab implementation)
   Alexander A. Auer      : GIAO ZORA, VPT2 properties, NMR spectrum
   Ute Becker             : Parallelization
   Giovanni Bistoni       : ED, misc. LED, open-shell LED, HFLD
   Martin Brehm           : Molecular dynamics
   Dmytro Bykov           : SCF Hessian
   Vijay G. Chilkuri      : MRCI spin determinant printing, contributions to CSF-ICE
   Dipayan Datta          : RHF DLPNO-CCSD density
   Achintya Kumar Dutta   : EOM-CC, STEOM-CC
   Dmitry Ganyushin       : Spin-Orbit,Spin-Spin,Magnetic field MRCI
   Miquel Garcia          : C-PCM and meta-GGA Hessian, CC/C-PCM, Gaussian charge scheme
   Yang Guo               : DLPNO-NEVPT2, F12-NEVPT2, CIM, IAO-localization
   Andreas Hansen         : Spin unrestricted coupled pair/coupled cluster methods
   Benjamin Helmich-Paris : MC-RPA, TRAH-SCF, COSX integrals
   Lee Huntington         : MR-EOM, pCC
   Robert Izsak           : Overlap fitted RIJCOSX, COSX-SCS-MP3, EOM
   Marcus Kettner         : VPT2
   Christian Kollmar      : KDIIS, OOCD, Brueckner-CCSD(T), CCSD density, CASPT2, CASPT2-K
   Simone Kossmann        : Meta GGA functionals, TD-DFT gradient, OOMP2, MP2 Hessian
   Martin Krupicka        : Initial AUTO-CI
   Lucas Lang             : DCDCAS
   Marvin Lechner         : AUTO-CI (C++ implementation), FIC-MRCC
   Dagmar Lenk            : GEPOL surface, SMD
   Dimitrios Liakos       : Extrapolation schemes; Compound Job, initial MDCI parallelization
   Dimitrios Manganas     : Further ROCIS development; embedding schemes
   Dimitrios Pantazis     : SARC Basis sets
   Anastasios Papadopoulos: AUTO-CI, single reference methods and gradients
   Taras Petrenko         : DFT Hessian,TD-DFT gradient, ASA, ECA, R-Raman, ABS, FL, XAS/XES, NRVS
   Peter Pinski           : DLPNO-MP2, DLPNO-MP2 Gradient
   Christoph Reimann      : Effective Core Potentials
   Marius Retegan         : Local ZFS, SOC
   Christoph Riplinger    : Optimizer, TS searches, QM/MM, DLPNO-CCSD(T), (RO)-DLPNO pert. Triples
   Tobias Risthaus        : Range-separated hybrids, TD-DFT gradient, RPA, STAB
   Michael Roemelt        : Original ROCIS implementation
   Masaaki Saitow         : Open-shell DLPNO-CCSD energy and density
   Barbara Sandhoefer     : DKH picture change effects
   Avijit Sen             : IP-ROCIS
   Kantharuban Sivalingam : CASSCF convergence, NEVPT2, FIC-MRCI
   Bernardo de Souza      : ESD, SOC TD-DFT
   Georgi Stoychev        : AutoAux, RI-MP2 NMR, DLPNO-MP2 response
   Willem Van den Heuvel  : Paramagnetic NMR
   Boris Wezisla          : Elementary symmetry handling
   Frank Wennmohs         : Technical directorship


 We gratefully acknowledge several colleagues who have allowed us to
 interface, adapt or use parts of their codes:
   Stefan Grimme, W. Hujo, H. Kruse, P. Pracht,  : VdW corrections, initial TS optimization,
                  C. Bannwarth, S. Ehlert          DFT functionals, gCP, sTDA/sTD-DF
   Ed Valeev, F. Pavosevic, A. Kumar             : LibInt (2-el integral package), F12 methods
   Garnet Chan, S. Sharma, J. Yang, R. Olivares  : DMRG
   Ulf Ekstrom                                   : XCFun DFT Library
   Mihaly Kallay                                 : mrcc  (arbitrary order and MRCC methods)
   Jiri Pittner, Ondrej Demel                    : Mk-CCSD
   Frank Weinhold                                : gennbo (NPA and NBO analysis)
   Christopher J. Cramer and Donald G. Truhlar   : smd solvation model
   Lars Goerigk                                  : TD-DFT with DH, B97 family of functionals
   V. Asgeirsson, H. Jonsson                     : NEB implementation
   FAccTs GmbH                                   : IRC, NEB, NEB-TS, DLPNO-Multilevel, CI-OPT
                                                   MM, QMMM, 2- and 3-layer-ONIOM, Crystal-QMMM,
                                                   LR-CPCM, SF, NACMEs, symmetry and pop. for TD-DFT,
                                                   nearIR, NL-DFT gradient (VV10), updates on ESD,
                                                   ML-optimized integration grids
   S Lehtola, MJT Oliveira, MAL Marques          : LibXC Library
   Liviu Ungur et al                             : ANISO software


 Your calculation uses the libint2 library for the computation of 2-el integrals
 For citations please refer to: http://libint.valeyev.net

 Your ORCA version has been built with support for libXC version: 5.1.0
 For citations please refer to: https://tddft.org/programs/libxc/

 This ORCA versions uses:
   CBLAS   interface :  Fast vector & matrix operations
   LAPACKE interface :  Fast linear algebra routines
   SCALAPACK package :  Parallel linear algebra routines
   Shared memory     :  Shared parallel matrices
   BLAS/LAPACK       :  OpenBLAS 0.3.15  USE64BITINT DYNAMIC_ARCH NO_AFFINITY Zen SINGLE_THREADED
        Core in use  :  Zen
   Copyright (c) 2011-2014, The OpenBLAS Project


================================================================================

----- Orbital basis set information -----
Your calculation utilizes the basis: def2-TZVPP
   F. Weigend and R. Ahlrichs, Phys. Chem. Chem. Phys. 7, 3297 (2005).

----- AuxC basis set information -----
Your calculation utilizes the auxiliary basis: def2-TZVPP/C
  H-La, Hf-Rn : A. Hellweg, C. Hattig, S. Hofener and W. Klopper, Theor. Chem. Acc. 117, 587 (2007).
        Ce-Lu : J. Chmela and M. E. Harding, Mol. Phys. (2018).

================================================================================
                                        WARNINGS
                       Please study these warnings very carefully!
================================================================================


WARNING: Post HF methods need fully converged wavefunctions
  ===> : Setting SCFConvForced true
         You can overwrite this default with %scf ConvForced false 


WARNING: MDCI localization with Augmented Hessian Foster-Boys
  ===> : Switching off randomization!

INFO   : the flag for use of the SHARK integral package has been found!

================================================================================
                                       INPUT FILE
================================================================================
NAME = Fluoxetine_41.inp
|  1> ! DLPNO-CCSD(T) def2-TZVPP def2-TZVPP/C VeryTightSCF
|  2> %maxcore 3400
|  3> 
|  4> %pal nprocs 8 
|  5> end
|  6> 
|  7> *xyz 1 1
|  8>  C       -0.960091        3.589433       -0.126561
|  9>  N       -2.000238        3.086348        0.812229
| 10>  C       -3.237150        2.528717        0.161233
| 11>  C       -3.013390        1.154654       -0.452462
| 12>  C       -2.673894        0.076354        0.577841
| 13>  C       -2.599105       -1.344943        0.060765
| 14>  C       -2.134853       -2.333894        0.923781
| 15>  C       -2.060778       -3.650794        0.506334
| 16>  C       -2.459747       -3.998591       -0.776756
| 17>  C       -2.933519       -3.022443       -1.636391
| 18>  C       -3.002160       -1.699830       -1.220339
| 19>  O       -1.507545        0.457148        1.340718
| 20>  C       -0.228813        0.403757        0.832917
| 21>  C        0.748153        0.861210        1.711210
| 22>  C        2.067532        0.928904        1.305998
| 23>  C        2.419205        0.535308        0.023253
| 24>  C        1.446498        0.061587       -0.840921
| 25>  C        0.118326       -0.008998       -0.447365
| 26>  C        3.845142        0.659848       -0.449045
| 27>  F        4.184932       -0.341246       -1.266053
| 28>  F        4.021721        1.805670       -1.130100
| 29>  F        4.707141        0.668324        0.570974
| 30>  H       -0.108139        3.938587        0.450518
| 31>  H       -1.379094        4.402552       -0.713813
| 32>  H       -0.642215        2.776748       -0.772755
| 33>  H       -2.267360        3.835693        1.445389
| 34>  H       -3.558990        3.251420       -0.587051
| 35>  H       -3.997348        2.480151        0.941293
| 36>  H       -2.268234        1.198714       -1.247755
| 37>  H       -3.955058        0.885409       -0.931703
| 38>  H       -3.449751        0.103892        1.348147
| 39>  H       -1.820065       -2.069507        1.925882
| 40>  H       -1.693446       -4.409174        1.185042
| 41>  H       -2.403522       -5.028719       -1.102690
| 42>  H       -3.251102       -3.285914       -2.636648
| 43>  H       -3.371210       -0.958082       -1.917135
| 44>  H        0.464784        1.136344        2.719587
| 45>  H        2.825590        1.277060        1.994149
| 46>  H        1.720923       -0.267826       -1.834358
| 47>  H       -0.612563       -0.412330       -1.130269
| 48>  H       -1.613322        2.317806        1.380188
| 49> *
| 50> 
| 51> 
| 52>                          ****END OF INPUT****
================================================================================

                       ****************************
                       * Single Point Calculation *
                       ****************************

---------------------------------
CARTESIAN COORDINATES (ANGSTROEM)
---------------------------------
  C     -0.960091    3.589433   -0.126561
  N     -2.000238    3.086348    0.812229
  C     -3.237150    2.528717    0.161233
  C     -3.013390    1.154654   -0.452462
  C     -2.673894    0.076354    0.577841
  C     -2.599105   -1.344943    0.060765
  C     -2.134853   -2.333894    0.923781
  C     -2.060778   -3.650794    0.506334
  C     -2.459747   -3.998591   -0.776756
  C     -2.933519   -3.022443   -1.636391
  C     -3.002160   -1.699830   -1.220339
  O     -1.507545    0.457148    1.340718
  C     -0.228813    0.403757    0.832917
  C      0.748153    0.861210    1.711210
  C      2.067532    0.928904    1.305998
  C      2.419205    0.535308    0.023253
  C      1.446498    0.061587   -0.840921
  C      0.118326   -0.008998   -0.447365
  C      3.845142    0.659848   -0.449045
  F      4.184932   -0.341246   -1.266053
  F      4.021721    1.805670   -1.130100
  F      4.707141    0.668324    0.570974
  H     -0.108139    3.938587    0.450518
  H     -1.379094    4.402552   -0.713813
  H     -0.642215    2.776748   -0.772755
  H     -2.267360    3.835693    1.445389
  H     -3.558990    3.251420   -0.587051
  H     -3.997348    2.480151    0.941293
  H     -2.268234    1.198714   -1.247755
  H     -3.955058    0.885409   -0.931703
  H     -3.449751    0.103892    1.348147
  H     -1.820065   -2.069507    1.925882
  H     -1.693446   -4.409174    1.185042
  H     -2.403522   -5.028719   -1.102690
  H     -3.251102   -3.285914   -2.636648
  H     -3.371210   -0.958082   -1.917135
  H      0.464784    1.136344    2.719587
  H      2.825590    1.277060    1.994149
  H      1.720923   -0.267826   -1.834358
  H     -0.612563   -0.412330   -1.130269
  H     -1.613322    2.317806    1.380188

----------------------------
CARTESIAN COORDINATES (A.U.)
----------------------------
  NO LB      ZA    FRAG     MASS         X           Y           Z
   0 C     6.0000    0    12.011   -1.814309    6.783045   -0.239166
   1 N     7.0000    0    14.007   -3.779902    5.832352    1.534890
   2 C     6.0000    0    12.011   -6.117327    4.778583    0.304686
   3 C     6.0000    0    12.011   -5.694482    2.181980   -0.855029
   4 C     6.0000    0    12.011   -5.052927    0.144288    1.091961
   5 C     6.0000    0    12.011   -4.911597   -2.541574    0.114829
   6 C     6.0000    0    12.011   -4.034288   -4.410420    1.745693
   7 C     6.0000    0    12.011   -3.894306   -6.899001    0.956833
   8 C     6.0000    0    12.011   -4.648248   -7.556242   -1.467856
   9 C     6.0000    0    12.011   -5.543548   -5.711590   -3.092331
  10 C     6.0000    0    12.011   -5.673260   -3.212213   -2.306107
  11 O     8.0000    0    15.999   -2.848847    0.863885    2.533590
  12 C     6.0000    0    12.011   -0.432394    0.762990    1.573985
  13 C     6.0000    0    12.011    1.413804    1.627451    3.233718
  14 C     6.0000    0    12.011    3.907069    1.755374    2.467979
  15 C     6.0000    0    12.011    4.571635    1.011586    0.043942
  16 C     6.0000    0    12.011    2.733485    0.116383   -1.589110
  17 C     6.0000    0    12.011    0.223604   -0.017004   -0.845397
  18 C     6.0000    0    12.011    7.266265    1.246932   -0.848572
  19 F     9.0000    0    18.998    7.908375   -0.644861   -2.392493
  20 F     9.0000    0    18.998    7.599951    3.412222   -2.135580
  21 F     9.0000    0    18.998    8.895207    1.262949    1.078984
  22 H     1.0000    0     1.008   -0.204353    7.442851    0.851356
  23 H     1.0000    0     1.008   -2.606110    8.319618   -1.348911
  24 H     1.0000    0     1.008   -1.213610    5.247293   -1.460295
  25 H     1.0000    0     1.008   -4.284689    7.248409    2.731389
  26 H     1.0000    0     1.008   -6.725516    6.144293   -1.109366
  27 H     1.0000    0     1.008   -7.553893    4.686806    1.778786
  28 H     1.0000    0     1.008   -4.286341    2.265241   -2.357915
  29 H     1.0000    0     1.008   -7.473976    1.673181   -1.760664
  30 H     1.0000    0     1.008   -6.519085    0.196327    2.547629
  31 H     1.0000    0     1.008   -3.439424   -3.910801    3.639390
  32 H     1.0000    0     1.008   -3.200149   -8.332131    2.239405
  33 H     1.0000    0     1.008   -4.541998   -9.502902   -2.083782
  34 H     1.0000    0     1.008   -6.143692   -6.209478   -4.982543
  35 H     1.0000    0     1.008   -6.370664   -1.810513   -3.622860
  36 H     1.0000    0     1.008    0.878314    2.147379    5.139275
  37 H     1.0000    0     1.008    5.339591    2.413294    3.768395
  38 H     1.0000    0     1.008    3.252073   -0.506118   -3.466434
  39 H     1.0000    0     1.008   -1.157576   -0.779191   -2.135899
  40 H     1.0000    0     1.008   -3.048737    4.380019    2.608177

--------------------------------
INTERNAL COORDINATES (ANGSTROEM)
--------------------------------
 C      0   0   0     0.000000000000     0.00000000     0.00000000
 N      1   0   0     1.488733341782     0.00000000     0.00000000
 C      2   1   0     1.504891829974   115.25792769     0.00000000
 C      3   2   1     1.521426704969   112.84650120    74.86612331
 C      4   3   2     1.529546565432   113.43020829    64.27764491
 C      5   4   3     1.514280735698   116.27255067   173.02721840
 C      6   5   4     1.392246607524   118.13257953   172.29117380
 C      7   6   5     1.383464749617   120.46181469   179.28123193
 C      8   7   6     1.387969367194   120.13718761   359.50193982
 C      9   8   7     1.384303853608   119.71881399   359.92558792
 C     10   9   8     1.388206037069   120.17518044     0.38082877
 O      5   4   3     1.444768278087   110.42950582   303.22226594
 C     12   5   4     1.376905219071   123.00933434   285.12991104
 C     13  12   5     1.391087490496   113.99326022   177.68318780
 C     14  13  12     1.381861132032   120.10039422   183.37513371
 C     15  14  13     1.387092803373   119.95668255   359.75229070
 C     16  15  14     1.384690288825   119.74363515   359.27422067
 C     17  16  15     1.387050622344   120.86292422     0.85306257
 C     16  15  14     1.507273014544   120.40966783   177.39026831
 F     19  16  15     1.336094500026   111.73357123   144.86310000
 F     19  16  15     1.344590685655   110.69325856   264.23568058
 F     19  16  15     1.335497240333   111.82792176    23.76981643
 H      1   2   3     1.086623623092   108.75236196   181.61535261
 H      1   2   3     1.087010089040   108.91363455    61.23947045
 H      1   2   3     1.085849320227   109.08003735   300.48684406
 H      2   1   3     1.016741696553   109.09881607   236.94414638
 H      3   2   1     1.088948830967   107.11307462   311.84777309
 H      3   2   1     1.090299618986   106.26547036   196.17034704
 H      4   3   2     1.090728978154   110.98385582   297.71087572
 H      4   3   2     1.090368482821   105.85994445   182.86552385
 H      5   4   3     1.093656143186   107.41145666    52.73095133
 H      7   6   5     1.083142827569   119.80291941   358.67147850
 H      8   7   6     1.081997029519   119.74150395   179.68989556
 H      9   8   7     1.081923250219   120.14143107   180.11028558
 H     10   9   8     1.082030496695   120.18575952   180.29908488
 H     11  10   9     1.082549150672   118.47394504   179.62182551
 H     14  13  12     1.082968550903   119.18723187     5.00787480
 H     15  14  13     1.081395547661   119.89900158   180.51975047
 H     17  16  15     1.082006967705   119.93355973   181.41832634
 H     18  17  16     1.078532941435   119.22748455   181.98329766
 H      2   1   3     1.030988953627   109.69960606   119.12164841

---------------------------
INTERNAL COORDINATES (A.U.)
---------------------------
 C      0   0   0     0.000000000000     0.00000000     0.00000000
 N      1   0   0     2.813298302406     0.00000000     0.00000000
 C      2   1   0     2.843833419826   115.25792769     0.00000000
 C      3   2   1     2.875079805226   112.84650120    74.86612331
 C      4   3   2     2.890424117746   113.43020829    64.27764491
 C      5   4   3     2.861575880342   116.27255067   173.02721840
 C      6   5   4     2.630964799101   118.13257953   172.29117380
 C      7   6   5     2.614369492711   120.46181469   179.28123193
 C      8   7   6     2.622881986269   120.13718761   359.50193982
 C      9   8   7     2.615955169450   119.71881399   359.92558792
 C     10   9   8     2.623329227516   120.17518044     0.38082877
 O      5   4   3     2.730216372561   110.42950582   303.22226594
 C     12   5   4     2.601973776412   123.00933434   285.12991104
 C     13  12   5     2.628774385361   113.99326022   177.68318780
 C     14  13  12     2.611339094651   120.10039422   183.37513371
 C     15  14  13     2.621225520709   119.95668255   359.75229070
 C     16  15  14     2.616685426179   119.74363515   359.27422067
 C     17  16  15     2.621145810115   120.86292422     0.85306257
 C     16  15  14     2.848333206538   120.40966783   177.39026831
 F     19  16  15     2.524852694088   111.73357123   144.86310000
 F     19  16  15     2.540908158109   110.69325856   264.23568058
 F     19  16  15     2.523724036838   111.82792176    23.76981643
 H      1   2   3     2.053421058293   108.75236196   181.61535261
 H      1   2   3     2.054151373094   108.91363455    61.23947045
 H      1   2   3     2.051957837933   109.08003735   300.48684406
 H      2   1   3     1.921363355423   109.09881607   236.94414638
 H      3   2   1     2.057815064382   107.11307462   311.84777309
 H      3   2   1     2.060367683801   106.26547036   196.17034704
 H      4   3   2     2.061179055043   110.98385582   297.71087572
 H      4   3   2     2.060497817591   105.85994445   182.86552385
 H      5   4   3     2.066710595303   107.41145666    52.73095133
 H      7   6   5     2.046843308026   119.80291941   358.67147850
 H      8   7   6     2.044678063507   119.74150395   179.68989556
 H      9   8   7     2.044538640836   120.14143107   180.11028558
 H     10   9   8     2.044741307305   120.18575952   180.29908488
 H     11  10   9     2.045721421279   118.47394504   179.62182551
 H     14  13  12     2.046513972857   119.18723187     5.00787480
 H     15  14  13     2.043541427521   119.89900158   180.51975047
 H     17  16  15     2.044696843958   119.93355973   181.41832634
 H     18  17  16     2.038131885725   119.22748455   181.98329766
 H      2   1   3     1.948286769453   109.69960606   119.12164841

---------------------
BASIS SET INFORMATION
---------------------
There are 5 groups of distinct atoms

 Group   1 Type C   : 11s6p2d1f contracted to 5s3p2d1f pattern {62111/411/11/1}
 Group   2 Type N   : 11s6p2d1f contracted to 5s3p2d1f pattern {62111/411/11/1}
 Group   3 Type O   : 11s6p2d1f contracted to 5s3p2d1f pattern {62111/411/11/1}
 Group   4 Type F   : 11s6p2d1f contracted to 5s3p2d1f pattern {62111/411/11/1}
 Group   5 Type H   : 5s2p1d contracted to 3s2p1d pattern {311/11/1}

Atom   0C    basis set group =>   1
Atom   1N    basis set group =>   2
Atom   2C    basis set group =>   1
Atom   3C    basis set group =>   1
Atom   4C    basis set group =>   1
Atom   5C    basis set group =>   1
Atom   6C    basis set group =>   1
Atom   7C    basis set group =>   1
Atom   8C    basis set group =>   1
Atom   9C    basis set group =>   1
Atom  10C    basis set group =>   1
Atom  11O    basis set group =>   3
Atom  12C    basis set group =>   1
Atom  13C    basis set group =>   1
Atom  14C    basis set group =>   1
Atom  15C    basis set group =>   1
Atom  16C    basis set group =>   1
Atom  17C    basis set group =>   1
Atom  18C    basis set group =>   1
Atom  19F    basis set group =>   4
Atom  20F    basis set group =>   4
Atom  21F    basis set group =>   4
Atom  22H    basis set group =>   5
Atom  23H    basis set group =>   5
Atom  24H    basis set group =>   5
Atom  25H    basis set group =>   5
Atom  26H    basis set group =>   5
Atom  27H    basis set group =>   5
Atom  28H    basis set group =>   5
Atom  29H    basis set group =>   5
Atom  30H    basis set group =>   5
Atom  31H    basis set group =>   5
Atom  32H    basis set group =>   5
Atom  33H    basis set group =>   5
Atom  34H    basis set group =>   5
Atom  35H    basis set group =>   5
Atom  36H    basis set group =>   5
Atom  37H    basis set group =>   5
Atom  38H    basis set group =>   5
Atom  39H    basis set group =>   5
Atom  40H    basis set group =>   5
---------------------------------
AUXILIARY/C BASIS SET INFORMATION
---------------------------------
There are 5 groups of distinct atoms

 Group   1 Type C   : 8s6p5d3f1g contracted to 8s6p4d3f1g pattern {11111111/111111/2111/111/1}
 Group   2 Type N   : 8s6p5d3f1g contracted to 8s6p4d3f1g pattern {11111111/111111/2111/111/1}
 Group   3 Type O   : 8s6p5d3f1g contracted to 8s6p4d3f1g pattern {11111111/111111/2111/111/1}
 Group   4 Type F   : 8s6p5d3f1g contracted to 8s6p4d3f1g pattern {11111111/111111/2111/111/1}
 Group   5 Type H   : 4s3p2d1f contracted to 4s3p2d1f pattern {1111/111/11/1}

Atom   0C    basis set group =>   1
Atom   1N    basis set group =>   2
Atom   2C    basis set group =>   1
Atom   3C    basis set group =>   1
Atom   4C    basis set group =>   1
Atom   5C    basis set group =>   1
Atom   6C    basis set group =>   1
Atom   7C    basis set group =>   1
Atom   8C    basis set group =>   1
Atom   9C    basis set group =>   1
Atom  10C    basis set group =>   1
Atom  11O    basis set group =>   3
Atom  12C    basis set group =>   1
Atom  13C    basis set group =>   1
Atom  14C    basis set group =>   1
Atom  15C    basis set group =>   1
Atom  16C    basis set group =>   1
Atom  17C    basis set group =>   1
Atom  18C    basis set group =>   1
Atom  19F    basis set group =>   4
Atom  20F    basis set group =>   4
Atom  21F    basis set group =>   4
Atom  22H    basis set group =>   5
Atom  23H    basis set group =>   5
Atom  24H    basis set group =>   5
Atom  25H    basis set group =>   5
Atom  26H    basis set group =>   5
Atom  27H    basis set group =>   5
Atom  28H    basis set group =>   5
Atom  29H    basis set group =>   5
Atom  30H    basis set group =>   5
Atom  31H    basis set group =>   5
Atom  32H    basis set group =>   5
Atom  33H    basis set group =>   5
Atom  34H    basis set group =>   5
Atom  35H    basis set group =>   5
Atom  36H    basis set group =>   5
Atom  37H    basis set group =>   5
Atom  38H    basis set group =>   5
Atom  39H    basis set group =>   5
Atom  40H    basis set group =>   5


           ************************************************************
           *        Program running with 8 parallel MPI-processes     *
           *              working on a common directory               *
           ************************************************************
------------------------------------------------------------------------------
                           ORCA GTO INTEGRAL CALCULATION
------------------------------------------------------------------------------
------------------------------------------------------------------------------
                   ___                                                        
                  /   \      - P O W E R E D   B Y -                         
                 /     \                                                     
                 |  |  |   _    _      __       _____    __    __             
                 |  |  |  | |  | |    /  \     |  _  \  |  |  /  |          
                  \  \/   | |  | |   /    \    | | | |  |  | /  /          
                 / \  \   | |__| |  /  /\  \   | |_| |  |  |/  /          
                |  |  |   |  __  | /  /__\  \  |    /   |      \           
                |  |  |   | |  | | |   __   |  |    \   |  |\   \          
                \     /   | |  | | |  |  |  |  | |\  \  |  | \   \       
                 \___/    |_|  |_| |__|  |__|  |_| \__\ |__|  \__/        
                                                                              
                      - O R C A' S   B I G   F R I E N D -                    
                                      &                                       
                       - I N T E G R A L  F E E D E R -                       
                                                                              
 v1 FN, 2020, v2 2021                                                         
------------------------------------------------------------------------------


Reading SHARK input file Fluoxetine_41.SHARKINP.tmp ... ok
----------------------
SHARK INTEGRAL PACKAGE
----------------------

Number of atoms                             ...     41
Number of basis functions                   ...    948
Number of shells                            ...    356
Maximum angular momentum                    ...      3
Integral batch strategy                     ... SHARK/LIBINT Hybrid
RI-J (if used) integral strategy            ... SPLIT-RIJ (Revised 2003 algorithm where possible)
Printlevel                                  ...      1
Contraction scheme used                     ... SEGMENTED contraction
Coulomb Range Separation                    ... NOT USED
Exchange Range Separation                   ... NOT USED
Finite Nucleus Model                        ... NOT USED
Auxiliary Coulomb fitting basis             ... NOT available
Auxiliary J/K fitting basis                 ... NOT available
Auxiliary Correlation fitting basis         ... AVAILABLE
   # of basis functions in Aux-C            ...   2242
   # of shells in Aux-C                     ...    674
   Maximum angular momentum in Aux-C        ...      4
Auxiliary 'external' fitting basis          ... NOT available
Integral threshold                          ...     1.000000e-12
Primitive cut-off                           ...     1.000000e-14
Primitive pair pre-selection threshold      ...     1.000000e-14

Calculating pre-screening integrals         ... done (  0.1 sec) Dimension = 356
Organizing shell pair data                  ... done (  0.3 sec)
Shell pair information
Total number of shell pairs                 ...     63546
Shell pairs after pre-screening             ...     46944
Total number of primitive shell pairs       ...    176069
Primitive shell pairs kept                  ...     90369
          la=0 lb=0:  10379 shell pairs
          la=1 lb=0:  13368 shell pairs
          la=1 lb=1:   4392 shell pairs
          la=2 lb=0:   7333 shell pairs
          la=2 lb=1:   4839 shell pairs
          la=2 lb=2:   1331 shell pairs
          la=3 lb=0:   2545 shell pairs
          la=3 lb=1:   1685 shell pairs
          la=3 lb=2:    900 shell pairs
          la=3 lb=3:    172 shell pairs

Calculating one electron integrals          ... done (  0.1 sec)
Calculating RI/C V-Matrix + Cholesky decomp.... done (  0.3 sec)
Calculating Nuclear repulsion               ... done (  0.0 sec) ENN=   1871.523921223707 Eh

SHARK setup successfully completed in   1.1 seconds

Maximum memory used throughout the entire GTOINT-calculation: 73.1 MB
[1696462131.901550] [nc30308:3632307:0]          mpool.c:42   UCX  WARN  object 0xafb72c0 was not returned to mpool ucp_requests
[1696462131.901569] [nc30308:3632307:0]          mpool.c:42   UCX  WARN  object 0xafb7480 was not returned to mpool ucp_requests
[1696462131.901575] [nc30308:3632307:0]          mpool.c:42   UCX  WARN  object 0xafb7640 was not returned to mpool ucp_requests
[1696462131.901579] [nc30308:3632307:0]          mpool.c:42   UCX  WARN  object 0xafb7800 was not returned to mpool ucp_requests
[1696462131.901583] [nc30308:3632307:0]          mpool.c:42   UCX  WARN  object 0xafb79c0 was not returned to mpool ucp_requests
[1696462131.901589] [nc30308:3632307:0]          mpool.c:42   UCX  WARN  object 0xafb7b80 was not returned to mpool ucp_requests
[1696462131.901593] [nc30308:3632307:0]          mpool.c:42   UCX  WARN  object 0xafb7d40 was not returned to mpool ucp_requests
[1696462131.901599] [nc30308:3632307:0]          mpool.c:42   UCX  WARN  object 0xafb7f00 was not returned to mpool ucp_requests
[1696462131.901602] [nc30308:3632307:0]          mpool.c:42   UCX  WARN  object 0xafb8280 was not returned to mpool ucp_requests
[1696462131.901607] [nc30308:3632307:0]          mpool.c:42   UCX  WARN  object 0xafb8440 was not returned to mpool ucp_requests
[1696462131.906141] [nc30308:3632312:0]          mpool.c:42   UCX  WARN  object 0xb959280 was not returned to mpool ucp_requests
[1696462131.906163] [nc30308:3632312:0]          mpool.c:42   UCX  WARN  object 0xb959440 was not returned to mpool ucp_requests
[1696462131.906170] [nc30308:3632312:0]          mpool.c:42   UCX  WARN  object 0xb959600 was not returned to mpool ucp_requests
[1696462131.906174] [nc30308:3632312:0]          mpool.c:42   UCX  WARN  object 0xb9597c0 was not returned to mpool ucp_requests
[1696462131.906178] [nc30308:3632312:0]          mpool.c:42   UCX  WARN  object 0xb959980 was not returned to mpool ucp_requests
[1696462131.906182] [nc30308:3632312:0]          mpool.c:42   UCX  WARN  object 0xb959b40 was not returned to mpool ucp_requests
[1696462131.906186] [nc30308:3632312:0]          mpool.c:42   UCX  WARN  object 0xb959d00 was not returned to mpool ucp_requests
[1696462131.906191] [nc30308:3632312:0]          mpool.c:42   UCX  WARN  object 0xb959ec0 was not returned to mpool ucp_requests
[1696462131.906194] [nc30308:3632312:0]          mpool.c:42   UCX  WARN  object 0xb95a080 was not returned to mpool ucp_requests
[1696462131.906197] [nc30308:3632312:0]          mpool.c:42   UCX  WARN  object 0xb95a240 was not returned to mpool ucp_requests
[1696462131.906202] [nc30308:3632312:0]          mpool.c:42   UCX  WARN  object 0xb95a400 was not returned to mpool ucp_requests
[1696462131.906208] [nc30308:3632312:0]          mpool.c:42   UCX  WARN  object 0xb95a5c0 was not returned to mpool ucp_requests
[1696462131.906212] [nc30308:3632312:0]          mpool.c:42   UCX  WARN  object 0xb95a780 was not returned to mpool ucp_requests
[1696462131.906216] [nc30308:3632312:0]          mpool.c:42   UCX  WARN  object 0xb95a940 was not returned to mpool ucp_requests
[1696462131.906220] [nc30308:3632312:0]          mpool.c:42   UCX  WARN  object 0xb95ab00 was not returned to mpool ucp_requests
[1696462131.906224] [nc30308:3632312:0]          mpool.c:42   UCX  WARN  object 0xb95acc0 was not returned to mpool ucp_requests
[1696462131.906229] [nc30308:3632312:0]          mpool.c:42   UCX  WARN  object 0xb95ae80 was not returned to mpool ucp_requests
[1696462131.906704] [nc30308:3632310:0]          mpool.c:42   UCX  WARN  object 0xa806200 was not returned to mpool ucp_requests
[1696462131.906718] [nc30308:3632310:0]          mpool.c:42   UCX  WARN  object 0xa8063c0 was not returned to mpool ucp_requests
[1696462131.906722] [nc30308:3632310:0]          mpool.c:42   UCX  WARN  object 0xa806580 was not returned to mpool ucp_requests
[1696462131.906726] [nc30308:3632310:0]          mpool.c:42   UCX  WARN  object 0xa806740 was not returned to mpool ucp_requests
[1696462131.906731] [nc30308:3632310:0]          mpool.c:42   UCX  WARN  object 0xa806900 was not returned to mpool ucp_requests
[1696462131.906735] [nc30308:3632310:0]          mpool.c:42   UCX  WARN  object 0xa806ac0 was not returned to mpool ucp_requests
[1696462131.906739] [nc30308:3632310:0]          mpool.c:42   UCX  WARN  object 0xa806c80 was not returned to mpool ucp_requests
[1696462131.906744] [nc30308:3632310:0]          mpool.c:42   UCX  WARN  object 0xa806e40 was not returned to mpool ucp_requests
[1696462131.906748] [nc30308:3632310:0]          mpool.c:42   UCX  WARN  object 0xa807000 was not returned to mpool ucp_requests
[1696462131.906752] [nc30308:3632310:0]          mpool.c:42   UCX  WARN  object 0xa8071c0 was not returned to mpool ucp_requests
[1696462131.906756] [nc30308:3632310:0]          mpool.c:42   UCX  WARN  object 0xa807380 was not returned to mpool ucp_requests
[1696462131.906760] [nc30308:3632310:0]          mpool.c:42   UCX  WARN  object 0xa807540 was not returned to mpool ucp_requests
[1696462131.906764] [nc30308:3632310:0]          mpool.c:42   UCX  WARN  object 0xa807700 was not returned to mpool ucp_requests
[1696462131.906768] [nc30308:3632310:0]          mpool.c:42   UCX  WARN  object 0xa8078c0 was not returned to mpool ucp_requests
[1696462131.906772] [nc30308:3632310:0]          mpool.c:42   UCX  WARN  object 0xa807a80 was not returned to mpool ucp_requests
[1696462131.906776] [nc30308:3632310:0]          mpool.c:42   UCX  WARN  object 0xa807c40 was not returned to mpool ucp_requests
[1696462131.906781] [nc30308:3632310:0]          mpool.c:42   UCX  WARN  object 0xa807e00 was not returned to mpool ucp_requests
[1696462131.906784] [nc30308:3632310:0]          mpool.c:42   UCX  WARN  object 0xa807fc0 was not returned to mpool ucp_requests
[1696462131.906789] [nc30308:3632310:0]          mpool.c:42   UCX  WARN  object 0xa808180 was not returned to mpool ucp_requests
[1696462131.906894] [nc30308:3632309:0]          mpool.c:42   UCX  WARN  object 0xb6a0c00 was not returned to mpool ucp_requests
[1696462131.906911] [nc30308:3632309:0]          mpool.c:42   UCX  WARN  object 0xb6a0dc0 was not returned to mpool ucp_requests
[1696462131.906917] [nc30308:3632309:0]          mpool.c:42   UCX  WARN  object 0xb6a0f80 was not returned to mpool ucp_requests
[1696462131.906921] [nc30308:3632309:0]          mpool.c:42   UCX  WARN  object 0xb6a1140 was not returned to mpool ucp_requests
[1696462131.906925] [nc30308:3632309:0]          mpool.c:42   UCX  WARN  object 0xb6a1300 was not returned to mpool ucp_requests
[1696462131.906929] [nc30308:3632309:0]          mpool.c:42   UCX  WARN  object 0xb6a14c0 was not returned to mpool ucp_requests
[1696462131.906933] [nc30308:3632309:0]          mpool.c:42   UCX  WARN  object 0xb6a1680 was not returned to mpool ucp_requests
[1696462131.906937] [nc30308:3632309:0]          mpool.c:42   UCX  WARN  object 0xb6a1840 was not returned to mpool ucp_requests
[1696462131.906940] [nc30308:3632309:0]          mpool.c:42   UCX  WARN  object 0xb6a1a00 was not returned to mpool ucp_requests
[1696462131.906944] [nc30308:3632309:0]          mpool.c:42   UCX  WARN  object 0xb6a1bc0 was not returned to mpool ucp_requests
[1696462131.906947] [nc30308:3632309:0]          mpool.c:42   UCX  WARN  object 0xb6a1d80 was not returned to mpool ucp_requests
[1696462131.906951] [nc30308:3632309:0]          mpool.c:42   UCX  WARN  object 0xb6a1f40 was not returned to mpool ucp_requests
[1696462131.906955] [nc30308:3632309:0]          mpool.c:42   UCX  WARN  object 0xb6a2100 was not returned to mpool ucp_requests
[1696462131.906959] [nc30308:3632309:0]          mpool.c:42   UCX  WARN  object 0xb6a22c0 was not returned to mpool ucp_requests
[1696462131.906963] [nc30308:3632309:0]          mpool.c:42   UCX  WARN  object 0xb6a2480 was not returned to mpool ucp_requests
[1696462131.906966] [nc30308:3632309:0]          mpool.c:42   UCX  WARN  object 0xb6a2640 was not returned to mpool ucp_requests
[1696462131.906970] [nc30308:3632309:0]          mpool.c:42   UCX  WARN  object 0xb6a2800 was not returned to mpool ucp_requests
[1696462131.906973] [nc30308:3632309:0]          mpool.c:42   UCX  WARN  object 0xb6a29c0 was not returned to mpool ucp_requests
[1696462131.907372] [nc30308:3632308:0]          mpool.c:42   UCX  WARN  object 0xa54d500 was not returned to mpool ucp_requests
[1696462131.907391] [nc30308:3632308:0]          mpool.c:42   UCX  WARN  object 0xa54d6c0 was not returned to mpool ucp_requests
[1696462131.907397] [nc30308:3632308:0]          mpool.c:42   UCX  WARN  object 0xa54d880 was not returned to mpool ucp_requests
[1696462131.907401] [nc30308:3632308:0]          mpool.c:42   UCX  WARN  object 0xa54da40 was not returned to mpool ucp_requests
[1696462131.907406] [nc30308:3632308:0]          mpool.c:42   UCX  WARN  object 0xa54dc00 was not returned to mpool ucp_requests
[1696462131.907410] [nc30308:3632308:0]          mpool.c:42   UCX  WARN  object 0xa54ddc0 was not returned to mpool ucp_requests
[1696462131.907413] [nc30308:3632308:0]          mpool.c:42   UCX  WARN  object 0xa54df80 was not returned to mpool ucp_requests
[1696462131.907417] [nc30308:3632308:0]          mpool.c:42   UCX  WARN  object 0xa54e140 was not returned to mpool ucp_requests
[1696462131.907421] [nc30308:3632308:0]          mpool.c:42   UCX  WARN  object 0xa54e300 was not returned to mpool ucp_requests
[1696462131.907425] [nc30308:3632308:0]          mpool.c:42   UCX  WARN  object 0xa54e4c0 was not returned to mpool ucp_requests
[1696462131.907429] [nc30308:3632308:0]          mpool.c:42   UCX  WARN  object 0xa54e680 was not returned to mpool ucp_requests
[1696462131.907434] [nc30308:3632308:0]          mpool.c:42   UCX  WARN  object 0xa54e840 was not returned to mpool ucp_requests
[1696462131.907437] [nc30308:3632308:0]          mpool.c:42   UCX  WARN  object 0xa54ea00 was not returned to mpool ucp_requests
[1696462131.907441] [nc30308:3632308:0]          mpool.c:42   UCX  WARN  object 0xa54ebc0 was not returned to mpool ucp_requests
[1696462131.907446] [nc30308:3632308:0]          mpool.c:42   UCX  WARN  object 0xa54ed80 was not returned to mpool ucp_requests
[1696462131.907448] [nc30308:3632308:0]          mpool.c:42   UCX  WARN  object 0xa54ef40 was not returned to mpool ucp_requests
[1696462131.907453] [nc30308:3632308:0]          mpool.c:42   UCX  WARN  object 0xa54f100 was not returned to mpool ucp_requests
[1696462131.907456] [nc30308:3632308:0]          mpool.c:42   UCX  WARN  object 0xa54f2c0 was not returned to mpool ucp_requests
[1696462131.908863] [nc30308:3632311:0]          mpool.c:42   UCX  WARN  object 0xc18ab00 was not returned to mpool ucp_requests
[1696462131.908874] [nc30308:3632311:0]          mpool.c:42   UCX  WARN  object 0xc18acc0 was not returned to mpool ucp_requests
[1696462131.908879] [nc30308:3632311:0]          mpool.c:42   UCX  WARN  object 0xc18ae80 was not returned to mpool ucp_requests
[1696462131.908882] [nc30308:3632311:0]          mpool.c:42   UCX  WARN  object 0xc18b040 was not returned to mpool ucp_requests
[1696462131.908887] [nc30308:3632311:0]          mpool.c:42   UCX  WARN  object 0xc18b200 was not returned to mpool ucp_requests
[1696462131.908890] [nc30308:3632311:0]          mpool.c:42   UCX  WARN  object 0xc18b3c0 was not returned to mpool ucp_requests
[1696462131.908894] [nc30308:3632311:0]          mpool.c:42   UCX  WARN  object 0xc18b580 was not returned to mpool ucp_requests
[1696462131.908899] [nc30308:3632311:0]          mpool.c:42   UCX  WARN  object 0xc18b740 was not returned to mpool ucp_requests
[1696462131.908903] [nc30308:3632311:0]          mpool.c:42   UCX  WARN  object 0xc18b900 was not returned to mpool ucp_requests
[1696462131.908907] [nc30308:3632311:0]          mpool.c:42   UCX  WARN  object 0xc18bac0 was not returned to mpool ucp_requests
[1696462131.908911] [nc30308:3632311:0]          mpool.c:42   UCX  WARN  object 0xc18bc80 was not returned to mpool ucp_requests
[1696462131.908915] [nc30308:3632311:0]          mpool.c:42   UCX  WARN  object 0xc18be40 was not returned to mpool ucp_requests
[1696462131.908920] [nc30308:3632311:0]          mpool.c:42   UCX  WARN  object 0xc18c000 was not returned to mpool ucp_requests
[1696462131.908923] [nc30308:3632311:0]          mpool.c:42   UCX  WARN  object 0xc18c1c0 was not returned to mpool ucp_requests
[1696462131.908927] [nc30308:3632311:0]          mpool.c:42   UCX  WARN  object 0xc18c380 was not returned to mpool ucp_requests
[1696462131.908930] [nc30308:3632311:0]          mpool.c:42   UCX  WARN  object 0xc18c540 was not returned to mpool ucp_requests
[1696462131.908934] [nc30308:3632311:0]          mpool.c:42   UCX  WARN  object 0xc18c700 was not returned to mpool ucp_requests
[1696462131.908938] [nc30308:3632311:0]          mpool.c:42   UCX  WARN  object 0xc18c8c0 was not returned to mpool ucp_requests
[1696462131.908942] [nc30308:3632311:0]          mpool.c:42   UCX  WARN  object 0xc18ca80 was not returned to mpool ucp_requests
[1696462131.909372] [nc30308:3632313:0]          mpool.c:42   UCX  WARN  object 0xac536c0 was not returned to mpool ucp_requests
[1696462131.909384] [nc30308:3632313:0]          mpool.c:42   UCX  WARN  object 0xac53880 was not returned to mpool ucp_requests
[1696462131.909389] [nc30308:3632313:0]          mpool.c:42   UCX  WARN  object 0xac53a40 was not returned to mpool ucp_requests
[1696462131.909393] [nc30308:3632313:0]          mpool.c:42   UCX  WARN  object 0xac53c00 was not returned to mpool ucp_requests
[1696462131.909397] [nc30308:3632313:0]          mpool.c:42   UCX  WARN  object 0xac53dc0 was not returned to mpool ucp_requests
[1696462131.909401] [nc30308:3632313:0]          mpool.c:42   UCX  WARN  object 0xac53f80 was not returned to mpool ucp_requests
[1696462131.909405] [nc30308:3632313:0]          mpool.c:42   UCX  WARN  object 0xac54140 was not returned to mpool ucp_requests
[1696462131.909410] [nc30308:3632313:0]          mpool.c:42   UCX  WARN  object 0xac54300 was not returned to mpool ucp_requests
[1696462131.909414] [nc30308:3632313:0]          mpool.c:42   UCX  WARN  object 0xac544c0 was not returned to mpool ucp_requests
[1696462131.909418] [nc30308:3632313:0]          mpool.c:42   UCX  WARN  object 0xac54680 was not returned to mpool ucp_requests
[1696462131.909423] [nc30308:3632313:0]          mpool.c:42   UCX  WARN  object 0xac54840 was not returned to mpool ucp_requests
[1696462131.909426] [nc30308:3632313:0]          mpool.c:42   UCX  WARN  object 0xac54a00 was not returned to mpool ucp_requests
[1696462131.909430] [nc30308:3632313:0]          mpool.c:42   UCX  WARN  object 0xac54bc0 was not returned to mpool ucp_requests
[1696462131.909434] [nc30308:3632313:0]          mpool.c:42   UCX  WARN  object 0xac54d80 was not returned to mpool ucp_requests
[1696462131.909438] [nc30308:3632313:0]          mpool.c:42   UCX  WARN  object 0xac54f40 was not returned to mpool ucp_requests
[1696462131.909442] [nc30308:3632313:0]          mpool.c:42   UCX  WARN  object 0xac55100 was not returned to mpool ucp_requests
[1696462131.909445] [nc30308:3632313:0]          mpool.c:42   UCX  WARN  object 0xac552c0 was not returned to mpool ucp_requests


           ************************************************************
           *        Program running with 8 parallel MPI-processes     *
           *              working on a common directory               *
           ************************************************************
-------------------------------------------------------------------------------
                                 ORCA SCF
-------------------------------------------------------------------------------

------------
SCF SETTINGS
------------
Hamiltonian:
 Ab initio Hamiltonian  Method          .... Hartree-Fock(GTOs)


General Settings:
 Integral files         IntName         .... Fluoxetine_41
 Hartree-Fock type      HFTyp           .... RHF
 Total Charge           Charge          ....    1
 Multiplicity           Mult            ....    1
 Number of Electrons    NEL             ....  162
 Basis Dimension        Dim             ....  948
 Nuclear Repulsion      ENuc            ....   1871.5239212237 Eh

Convergence Acceleration:
 DIIS                   CNVDIIS         .... on
   Start iteration      DIISMaxIt       ....    12
   Startup error        DIISStart       ....  0.200000
   # of expansion vecs  DIISMaxEq       ....     5
   Bias factor          DIISBfac        ....   1.050
   Max. coefficient     DIISMaxC        ....  10.000
 Trust-Rad. Augm. Hess. CNVTRAH         .... auto
   Auto Start mean grad. ratio tolernc. ....  1.125000
   Auto Start start iteration           ....    20
   Auto Start num. interpolation iter.  ....    10
   Max. Number of Micro iterations      ....    16
   Max. Number of Macro iterations      .... Maxiter - #DIIS iter
   Number of Davidson start vectors     ....     2
   Converg. threshold I  (grad. norm)   ....   2.000e-06
   Converg. threshold II (energy diff.) ....   1.000e-09
   Grad. Scal. Fac. for Micro threshold ....   0.100
   Minimum threshold for Micro iter.    ....   0.010
   NR start threshold (gradient norm)   ....   0.001
   Initial trust radius                 ....   0.400
   Minimum AH scaling param. (alpha)    ....   1.000
   Maximum AH scaling param. (alpha)    .... 1000.000
   Orbital update algorithm             .... Taylor
   White noise on init. David. guess    .... on
   Maximum white noise                  ....   0.010
   Quad. conv. algorithm                .... NR
 SOSCF                  CNVSOSCF        .... on
   Start iteration      SOSCFMaxIt      ....   150
   Startup grad/error   SOSCFStart      ....  0.003300
 Level Shifting         CNVShift        .... on
   Level shift para.    LevelShift      ....    0.2500
   Turn off err/grad.   ShiftErr        ....    0.0010
 Zerner damping         CNVZerner       .... off
 Static damping         CNVDamp         .... on
   Fraction old density DampFac         ....    0.7000
   Max. Damping (<1)    DampMax         ....    0.9800
   Min. Damping (>=0)   DampMin         ....    0.0000
   Turn off err/grad.   DampErr         ....    0.1000
 Fernandez-Rico         CNVRico         .... off

SCF Procedure:
 Maximum # iterations   MaxIter         ....   125
 SCF integral mode      SCFMode         .... Direct
   Integral package                     .... SHARK and LIBINT hybrid scheme
 Reset frequency        DirectResetFreq ....    20
 Integral Threshold     Thresh          ....  1.000e-12 Eh
 Primitive CutOff       TCut            ....  1.000e-14 Eh

Convergence Tolerance:
 Convergence Check Mode ConvCheckMode   .... Total+1el-Energy
 Convergence forced     ConvForced      .... 1
 Energy Change          TolE            ....  1.000e-09 Eh
 1-El. energy change                    ....  1.000e-06 Eh
 Orbital Gradient       TolG            ....  2.000e-06
 Orbital Rotation angle TolX            ....  2.000e-06
 DIIS Error             TolErr          ....  1.000e-08


Diagonalization of the overlap matrix:
Smallest eigenvalue                        ... 5.657e-06
Time for diagonalization                   ...    0.154 sec
Threshold for overlap eigenvalues          ... 1.000e-08
Number of eigenvalues below threshold      ... 0
Time for construction of square roots      ...    0.096 sec
Total time needed                          ...    0.253 sec

Time for model grid setup =    0.293 sec

------------------------------
INITIAL GUESS: MODEL POTENTIAL
------------------------------
Loading Hartree-Fock densities                     ... done
Calculating cut-offs                               ... done
Initializing the effective Hamiltonian             ... done
Setting up the integral package (SHARK)            ... done
Starting the Coulomb interaction                   ... done (   0.6 sec)
Reading the grid                                   ... done
Mapping shells                                     ... done
Starting the XC term evaluation                    ... done (   0.2 sec)
Transforming the Hamiltonian                       ... done (   0.4 sec)
Diagonalizing the Hamiltonian                      ... done (   0.2 sec)
Back transforming the eigenvectors                 ... done (   0.0 sec)
Now organizing SCF variables                       ... done
                      ------------------
                      INITIAL GUESS DONE (   1.7 sec)
                      ------------------
--------------
SCF ITERATIONS
--------------
ITER       Energy         Delta-E        Max-DP      RMS-DP      [F,P]     Damp
               ***  Starting incremental Fock matrix formation  ***
  0  -1081.8831963293   0.000000000000 0.03618025  0.00048487  0.3471513 0.7000
  1  -1082.1425351460  -0.259338816703 0.02716751  0.00039900  0.2522718 0.7000
                               ***Turning on DIIS***
  2  -1082.3069910600  -0.164455914016 0.01936903  0.00029056  0.1826175 0.7000
  3  -1084.2570018839  -1.950010823876 0.01756822  0.00022183  0.1316613 0.7000
  4  -1084.0292199432   0.227781940649 0.04601503  0.00057348  0.0929241 0.0000
  5  -1082.7195845219   1.309635421298 0.00576735  0.00006527  0.0035399 0.0000
                      *** Initiating the SOSCF procedure ***
                           *** Shutting down DIIS ***
                      *** Re-Reading the Fockian *** 
                      *** Removing any level shift *** 
ITER      Energy       Delta-E        Grad      Rot      Max-DP    RMS-DP
  6  -1082.66447929   0.0551052292  0.000721  0.000721  0.003315  0.000031
               *** Restarting incremental Fock matrix formation ***
  7  -1082.66575508  -0.0012757919  0.000504  0.001090  0.001078  0.000015
  8  -1082.66577382  -0.0000187314  0.000118  0.000677  0.000868  0.000011
  9  -1082.66577869  -0.0000048708  0.000087  0.000134  0.000213  0.000003
 10  -1082.66577920  -0.0000005148  0.000052  0.000137  0.000127  0.000002
 11  -1082.66577932  -0.0000001172  0.000018  0.000094  0.000029  0.000000
 12  -1082.66577935  -0.0000000349  0.000011  0.000034  0.000032  0.000000
 13  -1082.66577936  -0.0000000050  0.000001  0.000009  0.000012  0.000000
 14  -1082.66577936  -0.0000000006  0.000001  0.000003  0.000003  0.000000
                  ***Gradient check signals convergence***
              ***Rediagonalizing the Fockian in SOSCF/NRSCF***

               *****************************************************
               *                     SUCCESS                       *
               *           SCF CONVERGED AFTER  15 CYCLES          *
               *****************************************************


----------------
TOTAL SCF ENERGY
----------------

Total Energy       :        -1082.66577936 Eh          -29460.83362 eV

Components:
Nuclear Repulsion  :         1871.52392122 Eh           50926.75496 eV
Electronic Energy  :        -2954.18970058 Eh          -80387.58858 eV
One Electron Energy:        -5184.32101411 Eh         -141072.54678 eV
Two Electron Energy:         2230.13131353 Eh           60684.95820 eV

Virial components:
Potential Energy   :        -2164.50212966 Eh          -58899.09732 eV
Kinetic Energy     :         1081.83635030 Eh           29438.26370 eV
Virial Ratio       :            2.00076669


---------------
SCF CONVERGENCE
---------------

  Last Energy change         ...   -1.2915e-10  Tolerance :   1.0000e-09
  Last MAX-Density change    ...    1.0200e-06  Tolerance :   1.0000e-08
  Last RMS-Density change    ...    1.5788e-08  Tolerance :   1.0000e-09
  Last Orbital Gradient      ...    1.4531e-07  Tolerance :   2.0000e-06
  Last Orbital Rotation      ...    5.0052e-07  Tolerance :   2.0000e-06

             **** THE GBW FILE WAS UPDATED (Fluoxetine_41.gbw) ****
             **** DENSITY Fluoxetine_41.scfp WAS UPDATED ****
             **** ENERGY FILE WAS UPDATED (Fluoxetine_41.en.tmp) ****
             **** THE GBW FILE WAS UPDATED (Fluoxetine_41.gbw) ****
             **** DENSITY Fluoxetine_41.scfp WAS UPDATED ****
----------------
ORBITAL ENERGIES
----------------

  NO   OCC          E(Eh)            E(eV) 
   0   2.0000     -26.416819      -718.8382 
   1   2.0000     -26.415394      -718.7994 
   2   2.0000     -26.412224      -718.7132 
   3   2.0000     -20.730959      -564.1181 
   4   2.0000     -15.847252      -431.2257 
   5   2.0000     -11.590946      -315.4057 
   6   2.0000     -11.454394      -311.6899 
   7   2.0000     -11.442881      -311.3766 
   8   2.0000     -11.441687      -311.3441 
   9   2.0000     -11.436506      -311.2032 
  10   2.0000     -11.392495      -310.0056 
  11   2.0000     -11.368093      -309.3415 
  12   2.0000     -11.367548      -309.3267 
  13   2.0000     -11.362200      -309.1812 
  14   2.0000     -11.358408      -309.0780 
  15   2.0000     -11.357642      -309.0572 
  16   2.0000     -11.355399      -308.9961 
  17   2.0000     -11.343555      -308.6738 
  18   2.0000     -11.337952      -308.5214 
  19   2.0000     -11.335409      -308.4522 
  20   2.0000     -11.333945      -308.4123 
  21   2.0000     -11.331875      -308.3560 
  22   2.0000      -1.810202       -49.2581 
  23   2.0000      -1.715690       -46.6863 
  24   2.0000      -1.710772       -46.5525 
  25   2.0000      -1.557325       -42.3770 
  26   2.0000      -1.482767       -40.3482 
  27   2.0000      -1.294555       -35.2266 
  28   2.0000      -1.272696       -34.6318 
  29   2.0000      -1.234088       -33.5812 
  30   2.0000      -1.177263       -32.0350 
  31   2.0000      -1.159096       -31.5406 
  32   2.0000      -1.150203       -31.2986 
  33   2.0000      -1.127141       -30.6711 
  34   2.0000      -1.122981       -30.5579 
  35   2.0000      -1.078101       -29.3366 
  36   2.0000      -1.049034       -28.5457 
  37   2.0000      -1.006516       -27.3887 
  38   2.0000      -0.976331       -26.5673 
  39   2.0000      -0.961844       -26.1731 
  40   2.0000      -0.944369       -25.6976 
  41   2.0000      -0.932364       -25.3709 
  42   2.0000      -0.914147       -24.8752 
  43   2.0000      -0.902834       -24.5674 
  44   2.0000      -0.901852       -24.5406 
  45   2.0000      -0.891586       -24.2613 
  46   2.0000      -0.881535       -23.9878 
  47   2.0000      -0.838817       -22.8254 
  48   2.0000      -0.828252       -22.5379 
  49   2.0000      -0.815623       -22.1942 
  50   2.0000      -0.803594       -21.8669 
  51   2.0000      -0.790145       -21.5009 
  52   2.0000      -0.787136       -21.4191 
  53   2.0000      -0.768307       -20.9067 
  54   2.0000      -0.765919       -20.8417 
  55   2.0000      -0.759406       -20.6645 
  56   2.0000      -0.747652       -20.3446 
  57   2.0000      -0.743335       -20.2272 
  58   2.0000      -0.742615       -20.2076 
  59   2.0000      -0.741960       -20.1898 
  60   2.0000      -0.738424       -20.0935 
  61   2.0000      -0.727480       -19.7957 
  62   2.0000      -0.726596       -19.7717 
  63   2.0000      -0.721835       -19.6421 
  64   2.0000      -0.717525       -19.5248 
  65   2.0000      -0.711009       -19.3475 
  66   2.0000      -0.702502       -19.1161 
  67   2.0000      -0.688448       -18.7336 
  68   2.0000      -0.679516       -18.4906 
  69   2.0000      -0.660674       -17.9778 
  70   2.0000      -0.649752       -17.6807 
  71   2.0000      -0.639275       -17.3956 
  72   2.0000      -0.625508       -17.0209 
  73   2.0000      -0.614170       -16.7124 
  74   2.0000      -0.603481       -16.4216 
  75   2.0000      -0.594277       -16.1711 
  76   2.0000      -0.590749       -16.0751 
  77   2.0000      -0.473705       -12.8902 
  78   2.0000      -0.456774       -12.4295 
  79   2.0000      -0.445253       -12.1159 
  80   2.0000      -0.440606       -11.9895 
  81   0.0000      -0.038630        -1.0512 
  82   0.0000      -0.011420        -0.3108 
  83   0.0000      -0.006470        -0.1761 
  84   0.0000       0.002229         0.0607 
  85   0.0000       0.013664         0.3718 
  86   0.0000       0.016036         0.4364 
  87   0.0000       0.026788         0.7289 
  88   0.0000       0.032643         0.8883 
  89   0.0000       0.045062         1.2262 
  90   0.0000       0.053065         1.4440 
  91   0.0000       0.063904         1.7389 
  92   0.0000       0.070318         1.9134 
  93   0.0000       0.074057         2.0152 
  94   0.0000       0.081115         2.2073 
  95   0.0000       0.090430         2.4607 
  96   0.0000       0.092067         2.5053 
  97   0.0000       0.098023         2.6673 
  98   0.0000       0.103250         2.8096 
  99   0.0000       0.110005         2.9934 
 100   0.0000       0.115235         3.1357 
 101   0.0000       0.115876         3.1532 
 102   0.0000       0.128688         3.5018 
 103   0.0000       0.134160         3.6507 
 104   0.0000       0.138885         3.7793 
 105   0.0000       0.145434         3.9575 
 106   0.0000       0.152962         4.1623 
 107   0.0000       0.154534         4.2051 
 108   0.0000       0.174219         4.7407 
 109   0.0000       0.180309         4.9064 
 110   0.0000       0.184698         5.0259 
 111   0.0000       0.191956         5.2234 
 112   0.0000       0.199630         5.4322 
 113   0.0000       0.203780         5.5451 
 114   0.0000       0.205650         5.5960 
 115   0.0000       0.214100         5.8259 
 116   0.0000       0.218921         5.9571 
 117   0.0000       0.225379         6.1329 
 118   0.0000       0.229851         6.2546 
 119   0.0000       0.230817         6.2809 
 120   0.0000       0.237687         6.4678 
 121   0.0000       0.243878         6.6363 
 122   0.0000       0.245627         6.6838 
 123   0.0000       0.248775         6.7695 
 124   0.0000       0.256099         6.9688 
 125   0.0000       0.260825         7.0974 
 126   0.0000       0.266258         7.2452 
 127   0.0000       0.271965         7.4005 
 128   0.0000       0.275988         7.5100 
 129   0.0000       0.282717         7.6931 
 130   0.0000       0.287264         7.8168 
 131   0.0000       0.290337         7.9005 
 132   0.0000       0.297786         8.1032 
 133   0.0000       0.307248         8.3607 
 134   0.0000       0.310256         8.4425 
 135   0.0000       0.318439         8.6652 
 136   0.0000       0.323847         8.8123 
 137   0.0000       0.326479         8.8840 
 138   0.0000       0.332140         9.0380 
 139   0.0000       0.346067         9.4169 
 140   0.0000       0.351181         9.5561 
 141   0.0000       0.354799         9.6546 
 142   0.0000       0.360381         9.8065 
 143   0.0000       0.367502        10.0002 
 144   0.0000       0.370099        10.0709 
 145   0.0000       0.375185        10.2093 
 146   0.0000       0.377665        10.2768 
 147   0.0000       0.380712        10.3597 
 148   0.0000       0.385394        10.4871 
 149   0.0000       0.391912        10.6645 
 150   0.0000       0.397992        10.8299 
 151   0.0000       0.400505        10.8983 
 152   0.0000       0.405352        11.0302 
 153   0.0000       0.406290        11.0557 
 154   0.0000       0.411672        11.2022 
 155   0.0000       0.415159        11.2971 
 156   0.0000       0.421487        11.4693 
 157   0.0000       0.423740        11.5306 
 158   0.0000       0.431258        11.7351 
 159   0.0000       0.432809        11.7773 
 160   0.0000       0.437620        11.9083 
 161   0.0000       0.438902        11.9431 
 162   0.0000       0.442568        12.0429 
 163   0.0000       0.450390        12.2557 
 164   0.0000       0.456437        12.4203 
 165   0.0000       0.458758        12.4834 
 166   0.0000       0.463344        12.6082 
 167   0.0000       0.466275        12.6880 
 168   0.0000       0.471895        12.8409 
 169   0.0000       0.474337        12.9074 
 170   0.0000       0.482815        13.1381 
 171   0.0000       0.484723        13.1900 
 172   0.0000       0.488550        13.2941 
 173   0.0000       0.490820        13.3559 
 174   0.0000       0.499841        13.6014 
 175   0.0000       0.503420        13.6988 
 176   0.0000       0.504422        13.7260 
 177   0.0000       0.513248        13.9662 
 178   0.0000       0.519170        14.1273 
 179   0.0000       0.522230        14.2106 
 180   0.0000       0.525704        14.3051 
 181   0.0000       0.531093        14.4518 
 182   0.0000       0.536469        14.5981 
 183   0.0000       0.542248        14.7553 
 184   0.0000       0.543536        14.7904 
 185   0.0000       0.550239        14.9728 
 186   0.0000       0.557376        15.1670 
 187   0.0000       0.560397        15.2492 
 188   0.0000       0.563911        15.3448 
 189   0.0000       0.571914        15.5626 
 190   0.0000       0.579532        15.7699 
 191   0.0000       0.592338        16.1183 
 192   0.0000       0.594056        16.1651 
 193   0.0000       0.599596        16.3158 
 194   0.0000       0.601265        16.3613 
 195   0.0000       0.611398        16.6370 
 196   0.0000       0.615563        16.7503 
 197   0.0000       0.630444        17.1553 
 198   0.0000       0.632122        17.2009 
 199   0.0000       0.642479        17.4827 
 200   0.0000       0.652515        17.7558 
 201   0.0000       0.657830        17.9005 
 202   0.0000       0.670571        18.2472 
 203   0.0000       0.672167        18.2906 
 204   0.0000       0.681471        18.5438 
 205   0.0000       0.686561        18.6823 
 206   0.0000       0.696675        18.9575 
 207   0.0000       0.707547        19.2533 
 208   0.0000       0.715058        19.4577 
 209   0.0000       0.718617        19.5546 
 210   0.0000       0.725584        19.7441 
 211   0.0000       0.729180        19.8420 
 212   0.0000       0.740767        20.1573 
 213   0.0000       0.743271        20.2254 
 214   0.0000       0.758149        20.6303 
 215   0.0000       0.768018        20.8988 
 216   0.0000       0.770867        20.9764 
 217   0.0000       0.773008        21.0346 
 218   0.0000       0.774895        21.0860 
 219   0.0000       0.783795        21.3282 
 220   0.0000       0.785379        21.3713 
 221   0.0000       0.793158        21.5829 
 222   0.0000       0.798230        21.7209 
 223   0.0000       0.804192        21.8832 
 224   0.0000       0.808557        22.0020 
 225   0.0000       0.815239        22.1838 
 226   0.0000       0.826295        22.4846 
 227   0.0000       0.828680        22.5495 
 228   0.0000       0.831922        22.6378 
 229   0.0000       0.835759        22.7422 
 230   0.0000       0.836954        22.7747 
 231   0.0000       0.840372        22.8677 
 232   0.0000       0.846331        23.0298 
 233   0.0000       0.855597        23.2820 
 234   0.0000       0.868267        23.6268 
 235   0.0000       0.869607        23.6632 
 236   0.0000       0.876021        23.8378 
 237   0.0000       0.883312        24.0361 
 238   0.0000       0.884172        24.0596 
 239   0.0000       0.890600        24.2344 
 240   0.0000       0.896363        24.3913 
 241   0.0000       0.897615        24.4253 
 242   0.0000       0.906735        24.6735 
 243   0.0000       0.918097        24.9827 
 244   0.0000       0.919289        25.0151 
 245   0.0000       0.924154        25.1475 
 246   0.0000       0.942604        25.6496 
 247   0.0000       0.950978        25.8774 
 248   0.0000       0.953089        25.9349 
 249   0.0000       0.965490        26.2723 
 250   0.0000       0.969583        26.3837 
 251   0.0000       0.976301        26.5665 
 252   0.0000       0.983363        26.7587 
 253   0.0000       0.993170        27.0255 
 254   0.0000       0.994318        27.0568 
 255   0.0000       1.002599        27.2821 
 256   0.0000       1.003762        27.3138 
 257   0.0000       1.007843        27.4248 
 258   0.0000       1.017688        27.6927 
 259   0.0000       1.019315        27.7370 
 260   0.0000       1.032293        28.0901 
 261   0.0000       1.039553        28.2877 
 262   0.0000       1.046796        28.4848 
 263   0.0000       1.049857        28.5681 
 264   0.0000       1.056530        28.7497 
 265   0.0000       1.066490        29.0207 
 266   0.0000       1.070930        29.1415 
 267   0.0000       1.075292        29.2602 
 268   0.0000       1.081138        29.4193 
 269   0.0000       1.089873        29.6569 
 270   0.0000       1.104391        30.0520 
 271   0.0000       1.105294        30.0766 
 272   0.0000       1.110930        30.2300 
 273   0.0000       1.114708        30.3327 
 274   0.0000       1.120412        30.4880 
 275   0.0000       1.128349        30.7039 
 276   0.0000       1.131521        30.7902 
 277   0.0000       1.139978        31.0204 
 278   0.0000       1.143762        31.1234 
 279   0.0000       1.150950        31.3189 
 280   0.0000       1.156131        31.4599 
 281   0.0000       1.164689        31.6928 
 282   0.0000       1.168274        31.7903 
 283   0.0000       1.178902        32.0796 
 284   0.0000       1.181748        32.1570 
 285   0.0000       1.191709        32.4281 
 286   0.0000       1.193519        32.4773 
 287   0.0000       1.198781        32.6205 
 288   0.0000       1.204408        32.7736 
 289   0.0000       1.209906        32.9232 
 290   0.0000       1.216506        33.1028 
 291   0.0000       1.228441        33.4276 
 292   0.0000       1.230476        33.4830 
 293   0.0000       1.238221        33.6937 
 294   0.0000       1.242078        33.7987 
 295   0.0000       1.250478        34.0272 
 296   0.0000       1.261618        34.3304 
 297   0.0000       1.267685        34.4955 
 298   0.0000       1.272003        34.6130 
 299   0.0000       1.275411        34.7057 
 300   0.0000       1.282668        34.9032 
 301   0.0000       1.288230        35.0545 
 302   0.0000       1.304020        35.4842 
 303   0.0000       1.310039        35.6480 
 304   0.0000       1.319143        35.8957 
 305   0.0000       1.324614        36.0446 
 306   0.0000       1.330110        36.1941 
 307   0.0000       1.332026        36.2463 
 308   0.0000       1.340385        36.4737 
 309   0.0000       1.344635        36.5894 
 310   0.0000       1.352236        36.7962 
 311   0.0000       1.361435        37.0465 
 312   0.0000       1.366332        37.1798 
 313   0.0000       1.379416        37.5358 
 314   0.0000       1.383295        37.6414 
 315   0.0000       1.389362        37.8065 
 316   0.0000       1.394566        37.9481 
 317   0.0000       1.401203        38.1287 
 318   0.0000       1.408496        38.3271 
 319   0.0000       1.412212        38.4282 
 320   0.0000       1.419757        38.6335 
 321   0.0000       1.424713        38.7684 
 322   0.0000       1.441041        39.2127 
 323   0.0000       1.448775        39.4232 
 324   0.0000       1.453930        39.5634 
 325   0.0000       1.458251        39.6810 
 326   0.0000       1.464772        39.8585 
 327   0.0000       1.467468        39.9318 
 328   0.0000       1.472823        40.0776 
 329   0.0000       1.474169        40.1142 
 330   0.0000       1.485585        40.4248 
 331   0.0000       1.488145        40.4945 
 332   0.0000       1.492929        40.6247 
 333   0.0000       1.496279        40.7158 
 334   0.0000       1.507192        41.0128 
 335   0.0000       1.514634        41.2153 
 336   0.0000       1.524843        41.4931 
 337   0.0000       1.527863        41.5753 
 338   0.0000       1.539908        41.9030 
 339   0.0000       1.542764        41.9807 
 340   0.0000       1.548143        42.1271 
 341   0.0000       1.557248        42.3749 
 342   0.0000       1.563212        42.5372 
 343   0.0000       1.564336        42.5677 
 344   0.0000       1.567625        42.6572 
 345   0.0000       1.581181        43.0261 
 346   0.0000       1.582613        43.0651 
 347   0.0000       1.594550        43.3899 
 348   0.0000       1.609999        43.8103 
 349   0.0000       1.611412        43.8488 
 350   0.0000       1.615368        43.9564 
 351   0.0000       1.624128        44.1948 
 352   0.0000       1.629113        44.3304 
 353   0.0000       1.635445        44.5027 
 354   0.0000       1.644872        44.7592 
 355   0.0000       1.652252        44.9601 
 356   0.0000       1.663026        45.2532 
 357   0.0000       1.669349        45.4253 
 358   0.0000       1.677782        45.6548 
 359   0.0000       1.687614        45.9223 
 360   0.0000       1.692943        46.0673 
 361   0.0000       1.698719        46.2245 
 362   0.0000       1.705350        46.4049 
 363   0.0000       1.717206        46.7276 
 364   0.0000       1.722541        46.8727 
 365   0.0000       1.730380        47.0860 
 366   0.0000       1.739517        47.3347 
 367   0.0000       1.744932        47.4820 
 368   0.0000       1.752809        47.6964 
 369   0.0000       1.756858        47.8065 
 370   0.0000       1.766617        48.0721 
 371   0.0000       1.775046        48.3014 
 372   0.0000       1.779050        48.4104 
 373   0.0000       1.785735        48.5923 
 374   0.0000       1.797496        48.9123 
 375   0.0000       1.801203        49.0132 
 376   0.0000       1.813980        49.3609 
 377   0.0000       1.823813        49.6285 
 378   0.0000       1.835346        49.9423 
 379   0.0000       1.854378        50.4602 
 380   0.0000       1.857127        50.5350 
 381   0.0000       1.859566        50.6014 
 382   0.0000       1.871085        50.9148 
 383   0.0000       1.876905        51.0732 
 384   0.0000       1.894165        51.5429 
 385   0.0000       1.903784        51.8046 
 386   0.0000       1.909560        51.9618 
 387   0.0000       1.917245        52.1709 
 388   0.0000       1.928022        52.4641 
 389   0.0000       1.945250        52.9330 
 390   0.0000       1.952652        53.1344 
 391   0.0000       1.958631        53.2971 
 392   0.0000       1.963295        53.4240 
 393   0.0000       1.976082        53.7719 
 394   0.0000       1.984422        53.9989 
 395   0.0000       1.995120        54.2900 
 396   0.0000       2.006547        54.6009 
 397   0.0000       2.016396        54.8689 
 398   0.0000       2.026734        55.1502 
 399   0.0000       2.043747        55.6132 
 400   0.0000       2.052571        55.8533 
 401   0.0000       2.072536        56.3966 
 402   0.0000       2.085061        56.7374 
 403   0.0000       2.094294        56.9886 
 404   0.0000       2.099582        57.1325 
 405   0.0000       2.106782        57.3284 
 406   0.0000       2.119757        57.6815 
 407   0.0000       2.140373        58.2425 
 408   0.0000       2.145018        58.3689 
 409   0.0000       2.165034        58.9136 
 410   0.0000       2.173840        59.1532 
 411   0.0000       2.177488        59.2525 
 412   0.0000       2.183351        59.4120 
 413   0.0000       2.192038        59.6484 
 414   0.0000       2.202592        59.9356 
 415   0.0000       2.207210        60.0612 
 416   0.0000       2.218098        60.3575 
 417   0.0000       2.231899        60.7331 
 418   0.0000       2.237192        60.8771 
 419   0.0000       2.240427        60.9651 
 420   0.0000       2.258150        61.4474 
 421   0.0000       2.273102        61.8543 
 422   0.0000       2.274120        61.8820 
 423   0.0000       2.291255        62.3482 
 424   0.0000       2.307748        62.7970 
 425   0.0000       2.320995        63.1575 
 426   0.0000       2.330544        63.4173 
 427   0.0000       2.344198        63.7889 
 428   0.0000       2.357138        64.1410 
 429   0.0000       2.368394        64.4473 
 430   0.0000       2.373398        64.5834 
 431   0.0000       2.400047        65.3086 
 432   0.0000       2.418437        65.8090 
 433   0.0000       2.425660        66.0056 
 434   0.0000       2.429322        66.1052 
 435   0.0000       2.436098        66.2896 
 436   0.0000       2.445833        66.5545 
 437   0.0000       2.465811        67.0981 
 438   0.0000       2.485690        67.6391 
 439   0.0000       2.487170        67.6793 
 440   0.0000       2.501359        68.0654 
 441   0.0000       2.514524        68.4237 
 442   0.0000       2.519864        68.5690 
 443   0.0000       2.521272        68.6073 
 444   0.0000       2.527435        68.7750 
 445   0.0000       2.562348        69.7250 
 446   0.0000       2.566081        69.8266 
 447   0.0000       2.571528        69.9748 
 448   0.0000       2.585271        70.3488 
 449   0.0000       2.595422        70.6250 
 450   0.0000       2.598414        70.7064 
 451   0.0000       2.603008        70.8314 
 452   0.0000       2.618951        71.2653 
 453   0.0000       2.628006        71.5117 
 454   0.0000       2.632184        71.6254 
 455   0.0000       2.638179        71.7885 
 456   0.0000       2.642637        71.9098 
 457   0.0000       2.662077        72.4388 
 458   0.0000       2.682262        72.9881 
 459   0.0000       2.693170        73.2849 
 460   0.0000       2.700654        73.4885 
 461   0.0000       2.710790        73.7643 
 462   0.0000       2.722417        74.0807 
 463   0.0000       2.730534        74.3016 
 464   0.0000       2.738274        74.5122 
 465   0.0000       2.744618        74.6848 
 466   0.0000       2.754540        74.9548 
 467   0.0000       2.778427        75.6048 
 468   0.0000       2.785311        75.7922 
 469   0.0000       2.798274        76.1449 
 470   0.0000       2.807769        76.4033 
 471   0.0000       2.812423        76.5299 
 472   0.0000       2.829336        76.9901 
 473   0.0000       2.836507        77.1853 
 474   0.0000       2.841041        77.3086 
 475   0.0000       2.856752        77.7362 
 476   0.0000       2.862872        77.9027 
 477   0.0000       2.877477        78.3001 
 478   0.0000       2.882359        78.4330 
 479   0.0000       2.891678        78.6866 
 480   0.0000       2.898009        78.8588 
 481   0.0000       2.902697        78.9864 
 482   0.0000       2.916494        79.3618 
 483   0.0000       2.923411        79.5501 
 484   0.0000       2.930976        79.7559 
 485   0.0000       2.931835        79.7793 
 486   0.0000       2.939050        79.9756 
 487   0.0000       2.940890        80.0257 
 488   0.0000       2.946437        80.1766 
 489   0.0000       2.955409        80.4208 
 490   0.0000       2.959481        80.5316 
 491   0.0000       2.966607        80.7255 
 492   0.0000       2.973937        80.9249 
 493   0.0000       2.984420        81.2102 
 494   0.0000       2.990394        81.3728 
 495   0.0000       2.996729        81.5451 
 496   0.0000       3.010144        81.9102 
 497   0.0000       3.020975        82.2049 
 498   0.0000       3.022228        82.2390 
 499   0.0000       3.028606        82.4126 
 500   0.0000       3.040054        82.7241 
 501   0.0000       3.043640        82.8216 
 502   0.0000       3.044430        82.8432 
 503   0.0000       3.052373        83.0593 
 504   0.0000       3.056660        83.1759 
 505   0.0000       3.070708        83.5582 
 506   0.0000       3.076656        83.7201 
 507   0.0000       3.088527        84.0431 
 508   0.0000       3.095994        84.2463 
 509   0.0000       3.101571        84.3980 
 510   0.0000       3.107953        84.5717 
 511   0.0000       3.112229        84.6881 
 512   0.0000       3.118932        84.8704 
 513   0.0000       3.130463        85.1842 
 514   0.0000       3.134297        85.2885 
 515   0.0000       3.138746        85.4096 
 516   0.0000       3.140200        85.4492 
 517   0.0000       3.153105        85.8004 
 518   0.0000       3.158775        85.9546 
 519   0.0000       3.167626        86.1955 
 520   0.0000       3.172889        86.3387 
 521   0.0000       3.176548        86.4383 
 522   0.0000       3.180510        86.5461 
 523   0.0000       3.185718        86.6878 
 524   0.0000       3.187702        86.7418 
 525   0.0000       3.199522        87.0634 
 526   0.0000       3.207605        87.2834 
 527   0.0000       3.214954        87.4833 
 528   0.0000       3.220842        87.6436 
[...]
                                                          --------------------
sum of all corrections                                         -0.028335995912
Initial total correlation energy                               -3.751120668570
Thresholds for map construction and integral transformation for fine MP2 and CCSD(T) calculation:
   TCutMKN   ...     1.0e-03
   TCutDO    ...     1.0e-02
   TCutPairs ...     1.0e-04
   TCutCMO   ...     1.0e-03
   TCutCPAO  ...     1.0e-03

Thresholds for map construction and integral transformation for strong Triples:
   TCutMKN   ...     1.0e-02
   TCutDO    ...     2.0e-02
   TCutCMO   ...     1.0e-03
   TCutCPAO  ...     1.0e-03

Thresholds for map construction and integral transformation for weak Triples:
   TCutMKN   ...     1.0e-01
   TCutDO    ...     4.0e-02
   TCutCMO   ...     1.0e-03
   TCutCPAO  ...     1.0e-03

--------------------------------
LOCAL RI TRANSFORMATION (IAVPAO)
--------------------------------

Orbital window:      22 to 80
Number of PAOs:     948
Basis functions:    948 (356 shells)
Aux. functions:    2242 (674 shells)
Use SHARK:           on

Processing maps (0.0 sec)
Average map sizes:
   Aux shells -> MOs              49.8
   Aux shells -> PAOs            948.0
   MOs        -> AO shells       298.3
   PAOs       -> AO shells       342.6

Calculating integrals (6.1 sec, 811.068 MB)
Sorting integrals (0.9 sec, 811.043 MB)
Total time for the integral transformation: 7.1 sec
--------------------------------
INITIAL GUESS AND PNO GENERATION
--------------------------------

PNO truncation parameters                   .... 
    PAOOverlapThresh   =        1.000e-08

    TCutPairs          =        1.000e-04
    TCutPNO            =        3.330e-07
    TCutPNOSingles     =        9.990e-09
    TCutMP2Pairs       =        1.000e-05
    TCutMKN            =        1.000e-03
    TCutDO             =        1.000e-02

Pair selection                          .... not used
Type of local MP2 treatment                 .... semi-local MP2
Strategy for PNO selection                  .... occupation number selection
Pair density normalization                  .... MP2 norm
Spin component scaling                      .... not used

   .... Finished loop over pairs

 PNO Occupation Number Statistics: 
  | Av. % of trace(Dij) retained        ...  97.427761601974
  | sigma^2 in % of trace(Dij) retained ...   6.25e+00
  | Av. % of trace(Di) retained         ...  99.998961138514
  | sigma^2 in % of trace(Di) retained  ...   1.45e-07
 Distributions of % trace(Dij) recovered:
  |       >= 99.9  ...   174 ( 16.4 % of all pairs)
  |   [80.0, 90.0) ...    13 (  1.2 % of all pairs)
  |   [90.0, 99.0) ...   657 ( 62.0 % of all pairs)
  |   [99.0, 99.9) ...   216 ( 20.4 % of all pairs)
 Distributions of % trace(Di) recovered :
  |       >= 99.9  ...    59 (100.0 % of all I-pairs )

Making pair pair interaction lists          ... done

                       ===========================
                        658 OF 1060 PAIRS ARE KEPT
                       ===========================

Total time spent in the initial guess                 ...    50.997 sec
SL-MP2 correlation energy (all non-screened pairs)    ...      -3.752307285783 Eh

Initial PNO correlation energy                        ...      -3.725505739283 Eh
sum of pair energies estimated for screened out pairs ...      -0.001641660702 Eh
sum of MP2 pair energies for pairs that were not kept ...      -0.014877681189 Eh
sum of PNO error estimates for the kept pairs         ...      -0.011923865311 Eh
                                                          --------------------
sum of all corrections                                         -0.028443207202
Initial total correlation energy                               -3.753948946485
Thresholds for map construction and integral transformation for fine MP2 and CCSD(T) calculation:
   TCutMKN   ...     1.0e-03
   TCutDO    ...     1.0e-02
   TCutPairs ...     1.0e-04
   TCutCMO   ...     1.0e-03
   TCutCPAO  ...     1.0e-03

Time for aux screen maps:            0.008
Time for maps after fine MP2:            0.050
-----------------------------
LOCAL RI TRANSFORMATION (IJV)
-----------------------------

Orbital window:      22 to 80
Basis functions:    948 (356 shells)
Aux. functions:    2242 (674 shells)
Use SHARK:           on

Processing maps (0.0 sec)
Average map sizes:
   Aux shells -> MOs(i)           40.8
   Aux shells -> MOs(j)           59.0
   MOs        -> AO shells       298.3

Calculating integrals (4.8 sec, 41.466 MB)
Sorting integrals (0.1 sec, 41.441 MB)
Total time for the integral transformation: 4.8 sec
--------------------------------
LOCAL RI TRANSFORMATION (VABPAO)
--------------------------------

Number of PAOs:     948
Basis functions:    948 (356 shells)
Aux. functions:    2242 (674 shells)
Use SHARK:           on

Processing maps (0.0 sec)
Average map sizes:
   Aux shells -> PAOs            911.1
   PAOs       -> AO shells       342.6

Calculating integrals (28.4 sec, 14280.468 MB)
Finished


-------------------------------------
Pair Pair Term precalculation with     
RI-(ij|mn) and (im|jn) transformation  
ON THE FLY                             
-------------------------------------

   IBatch   1 (of   8)              ... done (   30.852 sec)
   IBatch   2 (of   8)              ... done (   32.913 sec)
   IBatch   3 (of   8)              ... done (   48.873 sec)
   IBatch   4 (of   8)              ... done (   48.218 sec)
   IBatch   5 (of   8)              ... done (   56.163 sec)
   IBatch   6 (of   8)              ... done (   64.478 sec)
   IBatch   7 (of   8)              ... done (   90.699 sec)
   IBatch   8 (of   8)              ... done (   45.270 sec)
Total EXT                           ...         417.467 sec

---------------------
RI-PNO TRANSFORMATION
---------------------

Total Number of PNOs                   ... 20480
Average number of PNOs per pair        ...    31
Maximal number of PNOs per pair        ...    81
   #pairs with  1 -  5 PNOs   :    0
   #pairs with  6 - 10 PNOs   :   49
   #pairs with 11 - 15 PNOs   :   94
   #pairs with 16 - 20 PNOs   :   90
   #pairs with 21 - 25 PNOs   :   54
   #pairs with 26 - 30 PNOs   :   54
   #pairs with 31 - 35 PNOs   :   86
   #pairs with 36 - 40 PNOs   :   44
   #pairs with 41 - 45 PNOs   :   52
   #pairs with 46 - 50 PNOs   :   39
   #pairs with 51 - 55 PNOs   :   34
   #pairs with 56 - 60 PNOs   :   20
   #pairs with 61 - 65 PNOs   :   12
   #pairs with 66 - 70 PNOs   :    2
   #pairs with 71 - 75 PNOs   :   18
   #pairs with 76 - 80 PNOs   :    8
   #pairs with 81 - 85 PNOs   :    2

Generation of (ij|ab)[P] integrals            ... on
Generation of (ia|bc)[P],(ja|bc)[P] integrals ... on
Storage of 3 and 4 external integrals         ... on
Generation of ALL (ka|bc)[P] integrals        ... on
Keep RI integrals in memory                   ... off

Ibatch:  1 (of  1)
Starting 2-4 index PNO integral generation ... done

Timings:
Total PNO integral transformation time     ...        140.408 sec
Size of the 3-external file                ...       319 MB
Size of the 4-external file                ...      2246 MB
Size of the IKJL file                      ...         0 MB
Size of the all 3-external file            ...      8271 MB
Size of the 1-external file                ...        24 MB

Making pair/pair overlap matrices          ... done (   32.839 sec)
Size of the pair overlap file              ... 2230 MB
Redoing the guess amplitudes               ... done (    0.011 sec)

-------------------------
FINAL STARTUP INFORMATION
-------------------------

E(0)                                       ...  -1082.665779359
E(SL-MP2)                                  ...     -3.752307286
E(SL-MP2) including corrections            ...     -3.753948946
Initial E(tot)                             ...  -1086.419728306
<T|T>                                      ...      0.995761756
Number of pairs included                   ... 658
Total number of pairs                      ... 1770

------------------------------------------------
                  RHF COUPLED CLUSTER ITERATIONS
------------------------------------------------

Number of PNO amplitudes to be optimized   ...       837418
Number of non-PNO amplitudes               ...    494611362
Untruncated number of regular amplitudes   ...   1330489530

Iter       E(tot)           E(Corr)          Delta-E          Residual     Time
  0  -1086.419907735     -3.725685169      0.026622117      0.019863883   40.30
                           *** Turning on DIIS ***
  1  -1086.541290519     -3.847067952     -0.121382784      0.012752426   39.44
  2  -1086.628899916     -3.934677350     -0.087609398      0.003285358   40.65
  3  -1086.644938859     -3.950716293     -0.016038943      0.001963466   37.78
  4  -1086.649711848     -3.955489282     -0.004772989      0.001034538   37.77
  5  -1086.651133256     -3.956910689     -0.001421407      0.000453657   39.97
  6  -1086.651489816     -3.957267250     -0.000356561      0.000161996   39.57
  7  -1086.651546278     -3.957323712     -0.000056462      0.000089411   39.84
  8  -1086.651569154     -3.957346587     -0.000022875      0.000055111   38.01
  9  -1086.651556557     -3.957333990      0.000012597      0.000034061   39.47
 10  -1086.651560836     -3.957338269     -0.000004279      0.000016541   37.90
 11  -1086.651558981     -3.957336414      0.000001855      0.000005537   38.91
 12  -1086.651559331     -3.957336764     -0.000000350      0.000001629   40.08
 13  -1086.651558999     -3.957336433      0.000000332      0.000000954   38.18
               --- The Coupled-Cluster iterations have converged ---

----------------------
COUPLED CLUSTER ENERGY
----------------------

E(0)                                       ...  -1082.665779359
E(CORR)(strong-pairs)                      ...     -3.957336433
E(CORR)(weak-pairs)                        ...     -0.028443207
E(CORR)(corrected)                         ...     -3.985779640
E(TOT)                                     ...  -1086.651558999
Singles Norm <S|S>**1/2                    ...      0.108465953  
T1 diagnostic                              ...      0.009985100  

------------------
LARGEST AMPLITUDES
------------------
  58-> 83  58-> 83       0.053098
  47-> 81  47-> 81       0.052742
  60-> 81  60-> 81       0.052504
  59-> 81  59-> 81       0.052119
  61-> 81  61-> 81       0.052060
  34-> 81  34-> 81       0.049872
  33-> 81  33-> 81       0.049404
  37-> 83  37-> 83       0.049367
  65-> 81  65-> 81       0.044330
  80-> 81  80-> 81       0.038961
  56-> 82  56-> 82       0.038718
  72-> 85  72-> 85       0.038710
  51-> 81  51-> 81       0.038087
  75-> 85  75-> 85       0.037906
  45-> 81  45-> 81       0.037679
  44-> 81  44-> 81       0.037308


-------------------------------------------
DLPNO BASED TRIPLES CORRECTION
-------------------------------------------

Singles multiplier          ...  1.000000
TCutTNO                     ... 1.000e-09
TCutMP2Pairs                ... 1.000e-05
TCutDOStrong                ... 2.000e-02
TCutMKNStrong               ... 1.000e-02
TCutDOWeak                  ... 4.000e-02
TCutMKNWeak                 ... 1.000e-01

Fragment selection                          .... not used
Fock matrix occ-virt block is zero --> Setting DT_in_Triples to false.
Number of Triples that are to be computed   ...      7038

 . . . . . . . . .
10% done               (    142.727 sec)
 . . . . . . . . .
20% done               (    154.538 sec)
 . . . . . . . . .
30% done  
40% done               (    180.934 sec)
 . . . . . . . . .
50% done  
60% done  
70% done               (    249.391 sec)
 . . . . . . . . .
80% done  
90% done               (    135.093 sec)
Triples timings:
Total time for T0               ...   948.974 sec
Total time for Iterative (T)    ...     0.000 sec
Total time of overall (T)       ...   948.980 sec

Triples List generation         ...     0.000 sec
TNO generation                  ...    86.239 sec
Pair density generation         ...     0.021 sec
Look up tables                  ...     0.000 sec
Generating 3-index integrals    ...   598.409 sec
  Make 4-ind.int. from 3-ind.int...    40.363 sec
  Projecting amplitudes (D + S) ...   173.201 sec
  Downprojecting integrals      ...     0.007 sec
  Energy contr. (sum over a,b,c)...     8.779 sec
Fitting ET(->0)                 ...     0.000 sec

Everything after 3-index        ...   264.274 sec

Timing details:
 TNO integrals                  ...   635.333 sec
   Reading 3-index integrals    ...    27.610 sec
   Sorting integrals            ...    82.612 sec
       Sorting integrals 1      ...     0.005 sec
       Sorting integrals 2      ...    70.930 sec
       Sorting integrals 3      ...     2.350 sec
       Sorting integrals 4      ...     0.195 sec
       Sorting integrals 5      ...     0.937 sec
       Sorting integrals 6      ...     8.194 sec
   Calculating local VM**-1/2   ...     2.095 sec
   Orthogonal. integrals        ...     3.916 sec
   Multipl. 3-index integrals   ...   519.098 sec
   All concerning IRIab (w/TNO) ...    24.189 sec

 Calculate W0/W1                ...    41.875 sec
 W 3-ext contribution           ...    23.025 sec
 W 3-int contribution           ...     9.300 sec
 Sorting W                      ...     8.738 sec

 V exchange contribution        ...     3.403 sec

 Timings for Triples without generation
     of 3-index integrals       ...   264.254 sec
       0 weak pairs             ...   192.626 sec
       1 weak pair              ...    71.628 sec
       2 weak pairs             ...     0.000 sec
       3 weak pairs             ...     0.000 sec
  Extra time for extrapolation  ...     0.000 sec

Number of Triples   (0, 1, 2, 3 weak pairs; overall):   4145    2893       0       0  (  7038)
Number of Atoms     (0, 1, 2, 3 weak pairs; overall):   17.3    14.5     0.0     0.0  (    41)
Number of PAOs      (0, 1, 2, 3 weak pairs; overall):  430.2   373.7     0.0     0.0  (   948)
Number of AuxFcns   (0, 1, 2, 3 weak pairs; overall):  480.8   369.2     0.0     0.0  (  2242)
Number of TNOs      (0, 1, 2, 3 weak pairs         ):   84.7    60.2     0.0     0.0
Aver. Number of NTNO, Atoms, PAOs, AuxFcns / Triples:   7038    74.6    16.1   407.0   434.9

Triples Correction (T)                     ...     -0.169978403
Final correlation energy                   ...     -4.155758043
E(CCSD)                                    ...  -1086.651558999
E(CCSD(T))                                 ...  -1086.821537402



--------------------------------------------------------------------------------
                                    TIMINGS
--------------------------------------------------------------------------------


Total execution time                   ...     2414.400 sec

Localization of occupied MO's          ...        2.506 sec (  0.1%)
Fock Matrix Formation                  ...      175.238 sec (  7.3%)
Global overlap, Fock, MKN matrices     ...        2.638 sec (  0.1%)
Differential overlap integrals         ...       10.303 sec (  0.4%)
Organizing maps                        ...        0.142 sec (  0.0%)
RI 3-index integral generations        ...       47.775 sec (  2.0%)
RI-PNO integral transformation         ...      590.819 sec ( 24.5%)
Initial Guess                          ...       87.702 sec (  3.6%)
DIIS Solver                            ...        1.439 sec (  0.1%)
State Vector Update                    ...        0.085 sec (  0.0%)
Sigma-vector construction              ...      546.334 sec ( 22.6%)
  <0|H|D>                              ...        0.002 sec (  0.0% of sigma)
  <D|H|D>(0-ext)                       ...       42.011 sec (  7.7% of sigma)
  <D|H|D>(2-ext Fock)                  ...        0.083 sec (  0.0% of sigma)
  <D|H|D>(2-ext)                       ...       89.421 sec ( 16.4% of sigma)
  <D|H|D>(4-ext)                       ...       35.060 sec (  6.4% of sigma)
  <D|H|D>(4-ext-corr)                  ...      189.451 sec ( 34.7% of sigma)
  CCSD doubles correction              ...        1.868 sec (  0.3% of sigma)
  <S|H|S>                              ...        5.079 sec (  0.9% of sigma)
  <S|H|D>(1-ext)                       ...        4.389 sec (  0.8% of sigma)
  <D|H|S>(1-ext)                       ...        0.075 sec (  0.0% of sigma)
  <S|H|D>(3-ext)                       ...        0.805 sec (  0.1% of sigma)
  CCSD singles correction              ...        0.003 sec (  0.0% of sigma)
  Fock-dressing                        ...       87.309 sec ( 16.0% of sigma)
  Singles amplitudes                   ...        6.174 sec (  1.1% of sigma)
  (ik|jl)-dressing                     ...       42.207 sec (  7.7% of sigma)
  (ij|ab),(ia|jb)-dressing             ...       11.630 sec (  2.1% of sigma)
  Pair energies                        ...        0.102 sec (  0.0% of sigma)
Total Time for computing (T)           ...      949.022 sec ( 39.3% of ALL)


Maximum memory used throughout the entire MDCI-calculation: 3440.5 MB

-------------------------   --------------------
FINAL SINGLE POINT ENERGY     -1086.821537401906
-------------------------   --------------------


                            ***************************************
                            *     ORCA property calculations      *
                            ***************************************


  WARNING: The energy has been calculated at the MDCI level but the densities
           used in the property calculations are still SCF densities
           MDCI response densities have not been calculated 
           use %mdci Density linearized end
           or  %mdci Density unrelaxed end
           or  %mdci Density orbopt end

                                    ---------------------
                                    Active property flags
                                    ---------------------
   (+) Dipole Moment


------------------------------------------------------------------------------
                       ORCA ELECTRIC PROPERTIES CALCULATION
------------------------------------------------------------------------------

Dipole Moment Calculation                       ... on
Quadrupole Moment Calculation                   ... off
Polarizability Calculation                      ... off
GBWName                                         ... Fluoxetine_41.gbw
Electron density                                ... Fluoxetine_41.scfp
The origin for moment calculation is the CENTER OF MASS  = (-0.088272,  0.238394  0.003142)

-------------
DIPOLE MOMENT
-------------
                                X             Y             Z
Electronic contribution:     36.22454      -3.10209      -1.42940
Nuclear contribution   :    -40.73471       6.62915       2.17446
                        -----------------------------------------
Total Dipole Moment    :     -4.51017       3.52706       0.74506
                        -----------------------------------------
Magnitude (a.u.)       :      5.77381
Magnitude (Debye)      :     14.67587



--------------------
Rotational spectrum 
--------------------
 
Rotational constants in cm-1:     0.012341     0.005986     0.004619 
Rotational constants in MHz :   369.970883   179.470607   138.474251 

 Dipole components along the rotational axes: 
x,y,z [a.u.] :    -3.209528     4.793382    -0.243627 
x,y,z [Debye]:    -8.157972    12.183808    -0.619252 

 

Timings for individual modules:

Sum of individual times         ...     3813.011 sec (=  63.550 min)
GTO integral calculation        ...        2.292 sec (=   0.038 min)   0.1 %
SCF iterations                  ...     1394.867 sec (=  23.248 min)  36.6 %
MDCI module                     ...     2415.852 sec (=  40.264 min)  63.4 %
                             ****ORCA TERMINATED NORMALLY****
TOTAL RUN TIME: 0 days 1 hours 3 minutes 34 seconds 501 msec
