
Lmod is automatically replacing "intel/2020.1.217" with "gcc/10.3.0".


Due to MODULEPATH changes, the following have been reloaded:
  1) blis/0.8.1     2) flexiblas/3.0.4

The following have been reloaded with a version change:
  1) gcccore/.9.3.0 => gcccore/.10.3.0        3) openmpi/4.0.3 => openmpi/4.1.1
  2) libfabric/1.10.1 => libfabric/1.12.1     4) ucx/1.8.0 => ucx/1.9.0

To execute ORCA, run: 
   ${EBROOTORCA}/orca orca.inp > orca.out

                                 *****************
                                 * O   R   C   A *
                                 *****************

                                            #,                                       
                                            ###                                      
                                            ####                                     
                                            #####                                    
                                            ######                                   
                                           ########,                                 
                                     ,,################,,,,,                         
                               ,,#################################,,                 
                          ,,##########################################,,             
                       ,#########################################, ''#####,          
                    ,#############################################,,   '####,        
                  ,##################################################,,,,####,       
                ,###########''''           ''''###############################       
              ,#####''   ,,,,##########,,,,          '''####'''          '####       
            ,##' ,,,,###########################,,,                        '##       
           ' ,,###''''                  '''############,,,                           
         ,,##''                                '''############,,,,        ,,,,,,###''
      ,#''                                            '''#######################'''  
     '                                                          ''''####''''         
             ,#######,   #######,   ,#######,      ##                                
            ,#'     '#,  ##    ##  ,#'     '#,    #''#        ######   ,####,        
            ##       ##  ##   ,#'  ##            #'  '#       #        #'  '#        
            ##       ##  #######   ##           ,######,      #####,   #    #        
            '#,     ,#'  ##    ##  '#,     ,#' ,#      #,         ##   #,  ,#        
             '#######'   ##     ##  '#######'  #'      '#     #####' # '####'        



                  #######################################################
                  #                        -***-                        #
                  #          Department of theory and spectroscopy      #
                  #    Directorship and core code : Frank Neese         #
                  #        Max Planck Institute fuer Kohlenforschung    #
                  #                Kaiser Wilhelm Platz 1               #
                  #                 D-45470 Muelheim/Ruhr               #
                  #                      Germany                        #
                  #                                                     #
                  #                  All rights reserved                #
                  #                        -***-                        #
                  #######################################################


                         Program Version 5.0.3 -  RELEASE  -


 With contributions from (in alphabetic order):
   Daniel Aravena         : Magnetic Suceptibility
   Michael Atanasov       : Ab Initio Ligand Field Theory (pilot matlab implementation)
   Alexander A. Auer      : GIAO ZORA, VPT2 properties, NMR spectrum
   Ute Becker             : Parallelization
   Giovanni Bistoni       : ED, misc. LED, open-shell LED, HFLD
   Martin Brehm           : Molecular dynamics
   Dmytro Bykov           : SCF Hessian
   Vijay G. Chilkuri      : MRCI spin determinant printing, contributions to CSF-ICE
   Dipayan Datta          : RHF DLPNO-CCSD density
   Achintya Kumar Dutta   : EOM-CC, STEOM-CC
   Dmitry Ganyushin       : Spin-Orbit,Spin-Spin,Magnetic field MRCI
   Miquel Garcia          : C-PCM and meta-GGA Hessian, CC/C-PCM, Gaussian charge scheme
   Yang Guo               : DLPNO-NEVPT2, F12-NEVPT2, CIM, IAO-localization
   Andreas Hansen         : Spin unrestricted coupled pair/coupled cluster methods
   Benjamin Helmich-Paris : MC-RPA, TRAH-SCF, COSX integrals
   Lee Huntington         : MR-EOM, pCC
   Robert Izsak           : Overlap fitted RIJCOSX, COSX-SCS-MP3, EOM
   Marcus Kettner         : VPT2
   Christian Kollmar      : KDIIS, OOCD, Brueckner-CCSD(T), CCSD density, CASPT2, CASPT2-K
   Simone Kossmann        : Meta GGA functionals, TD-DFT gradient, OOMP2, MP2 Hessian
   Martin Krupicka        : Initial AUTO-CI
   Lucas Lang             : DCDCAS
   Marvin Lechner         : AUTO-CI (C++ implementation), FIC-MRCC
   Dagmar Lenk            : GEPOL surface, SMD
   Dimitrios Liakos       : Extrapolation schemes; Compound Job, initial MDCI parallelization
   Dimitrios Manganas     : Further ROCIS development; embedding schemes
   Dimitrios Pantazis     : SARC Basis sets
   Anastasios Papadopoulos: AUTO-CI, single reference methods and gradients
   Taras Petrenko         : DFT Hessian,TD-DFT gradient, ASA, ECA, R-Raman, ABS, FL, XAS/XES, NRVS
   Peter Pinski           : DLPNO-MP2, DLPNO-MP2 Gradient
   Christoph Reimann      : Effective Core Potentials
   Marius Retegan         : Local ZFS, SOC
   Christoph Riplinger    : Optimizer, TS searches, QM/MM, DLPNO-CCSD(T), (RO)-DLPNO pert. Triples
   Tobias Risthaus        : Range-separated hybrids, TD-DFT gradient, RPA, STAB
   Michael Roemelt        : Original ROCIS implementation
   Masaaki Saitow         : Open-shell DLPNO-CCSD energy and density
   Barbara Sandhoefer     : DKH picture change effects
   Avijit Sen             : IP-ROCIS
   Kantharuban Sivalingam : CASSCF convergence, NEVPT2, FIC-MRCI
   Bernardo de Souza      : ESD, SOC TD-DFT
   Georgi Stoychev        : AutoAux, RI-MP2 NMR, DLPNO-MP2 response
   Willem Van den Heuvel  : Paramagnetic NMR
   Boris Wezisla          : Elementary symmetry handling
   Frank Wennmohs         : Technical directorship


 We gratefully acknowledge several colleagues who have allowed us to
 interface, adapt or use parts of their codes:
   Stefan Grimme, W. Hujo, H. Kruse, P. Pracht,  : VdW corrections, initial TS optimization,
                  C. Bannwarth, S. Ehlert          DFT functionals, gCP, sTDA/sTD-DF
   Ed Valeev, F. Pavosevic, A. Kumar             : LibInt (2-el integral package), F12 methods
   Garnet Chan, S. Sharma, J. Yang, R. Olivares  : DMRG
   Ulf Ekstrom                                   : XCFun DFT Library
   Mihaly Kallay                                 : mrcc  (arbitrary order and MRCC methods)
   Jiri Pittner, Ondrej Demel                    : Mk-CCSD
   Frank Weinhold                                : gennbo (NPA and NBO analysis)
   Christopher J. Cramer and Donald G. Truhlar   : smd solvation model
   Lars Goerigk                                  : TD-DFT with DH, B97 family of functionals
   V. Asgeirsson, H. Jonsson                     : NEB implementation
   FAccTs GmbH                                   : IRC, NEB, NEB-TS, DLPNO-Multilevel, CI-OPT
                                                   MM, QMMM, 2- and 3-layer-ONIOM, Crystal-QMMM,
                                                   LR-CPCM, SF, NACMEs, symmetry and pop. for TD-DFT,
                                                   nearIR, NL-DFT gradient (VV10), updates on ESD,
                                                   ML-optimized integration grids
   S Lehtola, MJT Oliveira, MAL Marques          : LibXC Library
   Liviu Ungur et al                             : ANISO software


 Your calculation uses the libint2 library for the computation of 2-el integrals
 For citations please refer to: http://libint.valeyev.net

 Your ORCA version has been built with support for libXC version: 5.1.0
 For citations please refer to: https://tddft.org/programs/libxc/

 This ORCA versions uses:
   CBLAS   interface :  Fast vector & matrix operations
   LAPACKE interface :  Fast linear algebra routines
   SCALAPACK package :  Parallel linear algebra routines
   Shared memory     :  Shared parallel matrices
   BLAS/LAPACK       :  OpenBLAS 0.3.15  USE64BITINT DYNAMIC_ARCH NO_AFFINITY Zen SINGLE_THREADED
        Core in use  :  Zen
   Copyright (c) 2011-2014, The OpenBLAS Project


================================================================================

----- Orbital basis set information -----
Your calculation utilizes the basis: def2-TZVPP
   F. Weigend and R. Ahlrichs, Phys. Chem. Chem. Phys. 7, 3297 (2005).

----- AuxC basis set information -----
Your calculation utilizes the auxiliary basis: def2-TZVPP/C
  H-La, Hf-Rn : A. Hellweg, C. Hattig, S. Hofener and W. Klopper, Theor. Chem. Acc. 117, 587 (2007).
        Ce-Lu : J. Chmela and M. E. Harding, Mol. Phys. (2018).

================================================================================
                                        WARNINGS
                       Please study these warnings very carefully!
================================================================================


WARNING: Post HF methods need fully converged wavefunctions
  ===> : Setting SCFConvForced true
         You can overwrite this default with %scf ConvForced false 


WARNING: MDCI localization with Augmented Hessian Foster-Boys
  ===> : Switching off randomization!

INFO   : the flag for use of the SHARK integral package has been found!

================================================================================
                                       INPUT FILE
================================================================================
NAME = Fluoxetine_55.inp
|  1> ! DLPNO-CCSD(T) def2-TZVPP def2-TZVPP/C VeryTightSCF
|  2> %maxcore 3400
|  3> 
|  4> %pal nprocs 8 
|  5> end
|  6> 
|  7> *xyz 1 1
|  8>  C       -5.021434        1.978065       -1.452462
|  9>  N       -4.386760        1.312046       -0.286374
| 10>  C       -3.423755        2.184523        0.468035
| 11>  C       -2.769989        1.462492        1.635812
| 12>  C       -1.675769        0.465503        1.233844
| 13>  C       -2.227100       -0.660892        0.374510
| 14>  C       -3.035758       -1.633863        0.957336
| 15>  C       -3.641163       -2.606790        0.176692
| 16>  C       -3.441778       -2.621842       -1.197753
| 17>  C       -2.620763       -1.669941       -1.783147
| 18>  C       -2.013588       -0.692524       -1.001755
| 19>  O       -0.701177        1.230805        0.567756
| 20>  C        0.565535        0.728183        0.412107
| 21>  C        0.955000       -0.538672        0.819298
| 22>  C        2.266224       -0.942562        0.610891
| 23>  C        3.173924       -0.096500        0.001604
| 24>  C        2.772281        1.169726       -0.406776
| 25>  C        1.472734        1.583632       -0.201433
| 26>  C        4.579486       -0.563065       -0.270188
| 27>  F        5.451905        0.451196       -0.243475
| 28>  F        4.984796       -1.471643        0.624612
| 29>  F        4.674856       -1.133581       -1.482613
| 30>  H       -5.558609        2.859266       -1.111561
| 31>  H       -5.706125        1.282285       -1.929745
| 32>  H       -4.240438        2.266371       -2.150963
| 33>  H       -3.873057        0.477672       -0.600239
| 34>  H       -3.990146        3.050694        0.806340
| 35>  H       -2.675657        2.517582       -0.250509
| 36>  H       -3.520673        0.957792        2.248911
| 37>  H       -2.313144        2.225197        2.266665
| 38>  H       -1.260460        0.047156        2.156152
| 39>  H       -3.186443       -1.639444        2.031565
| 40>  H       -4.260594       -3.361951        0.642835
| 41>  H       -3.907817       -3.385897       -1.805644
| 42>  H       -2.435545       -1.694108       -2.849275
| 43>  H       -1.355276        0.035272       -1.459815
| 44>  H        0.263330       -1.225397        1.285574
| 45>  H        2.575720       -1.928403        0.930258
| 46>  H        3.481265        1.836770       -0.878123
| 47>  H        1.148443        2.570949       -0.501565
| 48>  H       -5.102575        0.972693        0.353547
| 49> *
| 50> 
| 51> 
| 52>                          ****END OF INPUT****
================================================================================

                       ****************************
                       * Single Point Calculation *
                       ****************************

---------------------------------
CARTESIAN COORDINATES (ANGSTROEM)
---------------------------------
  C     -5.021434    1.978065   -1.452462
  N     -4.386760    1.312046   -0.286374
  C     -3.423755    2.184523    0.468035
  C     -2.769989    1.462492    1.635812
  C     -1.675769    0.465503    1.233844
  C     -2.227100   -0.660892    0.374510
  C     -3.035758   -1.633863    0.957336
  C     -3.641163   -2.606790    0.176692
  C     -3.441778   -2.621842   -1.197753
  C     -2.620763   -1.669941   -1.783147
  C     -2.013588   -0.692524   -1.001755
  O     -0.701177    1.230805    0.567756
  C      0.565535    0.728183    0.412107
  C      0.955000   -0.538672    0.819298
  C      2.266224   -0.942562    0.610891
  C      3.173924   -0.096500    0.001604
  C      2.772281    1.169726   -0.406776
  C      1.472734    1.583632   -0.201433
  C      4.579486   -0.563065   -0.270188
  F      5.451905    0.451196   -0.243475
  F      4.984796   -1.471643    0.624612
  F      4.674856   -1.133581   -1.482613
  H     -5.558609    2.859266   -1.111561
  H     -5.706125    1.282285   -1.929745
  H     -4.240438    2.266371   -2.150963
  H     -3.873057    0.477672   -0.600239
  H     -3.990146    3.050694    0.806340
  H     -2.675657    2.517582   -0.250509
  H     -3.520673    0.957792    2.248911
  H     -2.313144    2.225197    2.266665
  H     -1.260460    0.047156    2.156152
  H     -3.186443   -1.639444    2.031565
  H     -4.260594   -3.361951    0.642835
  H     -3.907817   -3.385897   -1.805644
  H     -2.435545   -1.694108   -2.849275
  H     -1.355276    0.035272   -1.459815
  H      0.263330   -1.225397    1.285574
  H      2.575720   -1.928403    0.930258
  H      3.481265    1.836770   -0.878123
  H      1.148443    2.570949   -0.501565
  H     -5.102575    0.972693    0.353547

----------------------------
CARTESIAN COORDINATES (A.U.)
----------------------------
  NO LB      ZA    FRAG     MASS         X           Y           Z
   0 C     6.0000    0    12.011   -9.489135    3.738001   -2.744755
   1 N     7.0000    0    14.007   -8.289775    2.479408   -0.541168
   2 C     6.0000    0    12.011   -6.469959    4.128150    0.884458
   3 C     6.0000    0    12.011   -5.234521    2.763709    3.091237
   4 C     6.0000    0    12.011   -3.166744    0.879673    2.331627
   5 C     6.0000    0    12.011   -4.208609   -1.248905    0.707721
   6 C     6.0000    0    12.011   -5.736751   -3.087554    1.809103
   7 C     6.0000    0    12.011   -6.880801   -4.926119    0.333899
   8 C     6.0000    0    12.011   -6.504018   -4.954563   -2.263425
   9 C     6.0000    0    12.011   -4.952524   -3.155731   -3.369659
  10 C     6.0000    0    12.011   -3.805130   -1.308681   -1.893043
  11 O     8.0000    0    15.999   -1.325033    2.325884    1.072903
  12 C     6.0000    0    12.011    1.068706    1.376066    0.778769
  13 C     6.0000    0    12.011    1.804688   -1.017943    1.548249
  14 C     6.0000    0    12.011    4.282543   -1.781184    1.154417
  15 C     6.0000    0    12.011    5.997847   -0.182359    0.003031
  16 C     6.0000    0    12.011    5.238852    2.210462   -0.768695
  17 C     6.0000    0    12.011    2.783064    2.992631   -0.380653
  18 C     6.0000    0    12.011    8.653974   -1.064039   -0.510581
  19 F     9.0000    0    18.998   10.302607    0.852637   -0.460101
  20 F     9.0000    0    18.998    9.419899   -2.781002    1.180346
  21 F     9.0000    0    18.998    8.834198   -2.142158   -2.801733
  22 H     1.0000    0     1.008  -10.504249    5.403230   -2.100546
  23 H     1.0000    0     1.008  -10.783014    2.423167   -3.646690
  24 H     1.0000    0     1.008   -8.013267    4.282821   -4.064731
  25 H     1.0000    0     1.008   -7.319017    0.902669   -1.134287
  26 H     1.0000    0     1.008   -7.540283    5.764976    1.523762
  27 H     1.0000    0     1.008   -5.056259    4.757540   -0.473393
  28 H     1.0000    0     1.008   -6.653108    1.809965    4.249826
  29 H     1.0000    0     1.008   -4.371209    4.205013    4.283376
  30 H     1.0000    0     1.008   -2.381924    0.089112    4.074537
  31 H     1.0000    0     1.008   -6.021505   -3.098100    3.839101
  32 H     1.0000    0     1.008   -8.051356   -6.353167    1.214782
  33 H     1.0000    0     1.008   -7.384704   -6.398418   -3.412173
  34 H     1.0000    0     1.008   -4.602513   -3.201400   -5.384349
  35 H     1.0000    0     1.008   -2.561100    0.066654   -2.758651
  36 H     1.0000    0     1.008    0.497622   -2.315665    2.429383
  37 H     1.0000    0     1.008    4.867405   -3.644154    1.757933
  38 H     1.0000    0     1.008    6.578637    3.470992   -1.659412
  39 H     1.0000    0     1.008    2.170243    4.858390   -0.947820
  40 H     1.0000    0     1.008   -9.642469    1.838123    0.668107

--------------------------------
INTERNAL COORDINATES (ANGSTROEM)
--------------------------------
 C      0   0   0     0.000000000000     0.00000000     0.00000000
 N      1   0   0     1.485312633213     0.00000000     0.00000000
 C      2   1   0     1.502573686990   114.05801027     0.00000000
 C      3   2   1     1.520671519246   112.66850453   181.26394565
 C      4   3   2     1.533910932077   114.45975488    75.42532330
 C      5   4   3     1.520258692178   111.77731679   297.61440814
 C      6   5   4     1.392941662124   119.44325053   288.16731375
 C      7   6   5     1.386545064572   120.53333806   174.60151069
 C      8   7   6     1.388913243854   120.13726073     0.21662890
 C      9   8   7     1.386674900350   119.69050771     0.83148517
 C     10   9   8     1.390891415668   120.24469673   359.11148943
 O      5   4   3     1.406836856715   105.34785515    60.39494607
 C     12   5   4     1.371646739153   119.61346817   161.68353256
 C     13  12   5     1.386509678196   124.11769267     3.14771500
 C     14  13  12     1.387756818728   119.15822200   180.01387855
 C     15  14  13     1.382378691319   120.56232109   359.80147787
 C     16  15  14     1.389755232739   119.82696521     0.00000000
 C     17  16  15     1.379241215196   120.13092320     0.19964727
 C     16  15  14     1.505708579484   120.18947170   182.45048169
 F     19  16  15     1.338115791720   111.72416780   209.75890552
 F     19  16  15     1.338079675574   111.86688394   330.57823344
 F     19  16  15     1.343338499330   111.14863786    90.21741505
 H      1   2   3     1.086869667820   109.17760466   301.09400820
 H      1   2   3     1.086605096606   109.08475126   180.60303521
 H      1   2   3     1.086728461325   108.45065885    60.92363927
 H      2   1   3     1.028874133366   109.72388675   239.08321164
 H      3   2   1     1.088807255278   106.53084529    58.98519888
 H      3   2   1     1.089442240333   106.64638561   303.13762245
 H      4   3   2     1.092766645564   110.78174947   310.78136929
 H      4   3   2     1.090138421788   106.99970046   194.91442925
 H      5   4   3     1.094599390076   107.35328798   177.75023078
 H      7   6   5     1.084760370417   119.90666869   353.94235802
 H      8   7   6     1.082244055715   119.80361481   179.50103747
 H      9   8   7     1.081898267134   120.12162312   179.50365458
 H     10   9   8     1.082367157575   120.12003293   178.06507151
 H     11  10   9     1.082996154453   119.99917977   178.61033880
 H     14  13  12     1.080468381167   121.84687004     0.66639377
 H     15  14  13     1.081510763694   119.42835151   179.76433734
 H     17  16  15     1.081560911184   120.03549207   179.61086473
 H     18  17  16     1.081683284790   121.00319908   179.16893800
 H      2   1   3     1.018356744503   110.02331672   123.06478969

---------------------------
INTERNAL COORDINATES (A.U.)
---------------------------
 C      0   0   0     0.000000000000     0.00000000     0.00000000
 N      1   0   0     2.806834100025     0.00000000     0.00000000
 C      2   1   0     2.839452764448   114.05801027     0.00000000
 C      3   2   1     2.873652711029   112.66850453   181.26394565
 C      4   3   2     2.898671575453   114.45975488    75.42532330
 C      5   4   3     2.872872580929   111.77731679   297.61440814
 C      6   5   4     2.632278261944   119.44325053   288.16731375
 C      7   6   5     2.620190444382   120.53333806   174.60151069
 C      8   7   6     2.624665654661   120.13726073     0.21662890
 C      9   8   7     2.620435798445   119.69050771     0.83148517
 C     10   9   8     2.628403857634   120.24469673   359.11148943
 O      5   4   3     2.658536374298   105.34785515    60.39494607
 C     12   5   4     2.592036689485   119.61346817   161.68353256
 C     13  12   5     2.620123573822   124.11769267     3.14771500
 C     14  13  12     2.622480327877   119.15822200   180.01387855
 C     15  14  13     2.612317139961   120.56232109   359.80147787
 C     16  15  14     2.626256783060   119.82696521     0.00000000
 C     17  16  15     2.606388169336   120.13092320     0.19964727
 C     16  15  14     2.845376852721   120.18947170   182.45048169
 F     19  16  15     2.528672381826   111.72416780   209.75890552
 F     19  16  15     2.528604132201   111.86688394   330.57823344
 F     19  16  15     2.538541868886   111.14863786    90.21741505
 H      1   2   3     2.053886015446   109.17760466   301.09400820
 H      1   2   3     2.053386048308   109.08475126   180.60303521
 H      1   2   3     2.053619173841   108.45065885    60.92363927
 H      2   1   3     1.944290338338   109.72388675   239.08321164
 H      3   2   1     2.057547525103   106.53084529    58.98519888
 H      3   2   1     2.058747472954   106.64638561   303.13762245
 H      4   3   2     2.065029688400   110.78174947   310.78136929
 H      4   3   2     2.060063065245   106.99970046   194.91442925
 H      5   4   3     2.068493073600   107.35328798   177.75023078
 H      7   6   5     2.049900021019   119.90666869   353.94235802
 H      8   7   6     2.045144875366   119.80361481   179.50103747
 H      9   8   7     2.044491429647   120.12162312   179.50365458
 H     10   9   8     2.045377504168   120.12003293   178.06507151
 H     11  10   9     2.046566136006   119.99917977   178.61033880
 H     14  13  12     2.041789336766   121.84687004     0.66639377
 H     15  14  13     2.043759154270   119.42835151   179.76433734
 H     17  16  15     2.043853919292   120.03549207   179.61086473
 H     18  17  16     2.044085171893   121.00319908   179.16893800
 H      2   1   3     1.924415353743   110.02331672   123.06478969

---------------------
BASIS SET INFORMATION
---------------------
There are 5 groups of distinct atoms

 Group   1 Type C   : 11s6p2d1f contracted to 5s3p2d1f pattern {62111/411/11/1}
 Group   2 Type N   : 11s6p2d1f contracted to 5s3p2d1f pattern {62111/411/11/1}
 Group   3 Type O   : 11s6p2d1f contracted to 5s3p2d1f pattern {62111/411/11/1}
 Group   4 Type F   : 11s6p2d1f contracted to 5s3p2d1f pattern {62111/411/11/1}
 Group   5 Type H   : 5s2p1d contracted to 3s2p1d pattern {311/11/1}

Atom   0C    basis set group =>   1
Atom   1N    basis set group =>   2
Atom   2C    basis set group =>   1
Atom   3C    basis set group =>   1
Atom   4C    basis set group =>   1
Atom   5C    basis set group =>   1
Atom   6C    basis set group =>   1
Atom   7C    basis set group =>   1
Atom   8C    basis set group =>   1
Atom   9C    basis set group =>   1
Atom  10C    basis set group =>   1
Atom  11O    basis set group =>   3
Atom  12C    basis set group =>   1
Atom  13C    basis set group =>   1
Atom  14C    basis set group =>   1
Atom  15C    basis set group =>   1
Atom  16C    basis set group =>   1
Atom  17C    basis set group =>   1
Atom  18C    basis set group =>   1
Atom  19F    basis set group =>   4
Atom  20F    basis set group =>   4
Atom  21F    basis set group =>   4
Atom  22H    basis set group =>   5
Atom  23H    basis set group =>   5
Atom  24H    basis set group =>   5
Atom  25H    basis set group =>   5
Atom  26H    basis set group =>   5
Atom  27H    basis set group =>   5
Atom  28H    basis set group =>   5
Atom  29H    basis set group =>   5
Atom  30H    basis set group =>   5
Atom  31H    basis set group =>   5
Atom  32H    basis set group =>   5
Atom  33H    basis set group =>   5
Atom  34H    basis set group =>   5
Atom  35H    basis set group =>   5
Atom  36H    basis set group =>   5
Atom  37H    basis set group =>   5
Atom  38H    basis set group =>   5
Atom  39H    basis set group =>   5
Atom  40H    basis set group =>   5
---------------------------------
AUXILIARY/C BASIS SET INFORMATION
---------------------------------
There are 5 groups of distinct atoms

 Group   1 Type C   : 8s6p5d3f1g contracted to 8s6p4d3f1g pattern {11111111/111111/2111/111/1}
 Group   2 Type N   : 8s6p5d3f1g contracted to 8s6p4d3f1g pattern {11111111/111111/2111/111/1}
 Group   3 Type O   : 8s6p5d3f1g contracted to 8s6p4d3f1g pattern {11111111/111111/2111/111/1}
 Group   4 Type F   : 8s6p5d3f1g contracted to 8s6p4d3f1g pattern {11111111/111111/2111/111/1}
 Group   5 Type H   : 4s3p2d1f contracted to 4s3p2d1f pattern {1111/111/11/1}

Atom   0C    basis set group =>   1
Atom   1N    basis set group =>   2
Atom   2C    basis set group =>   1
Atom   3C    basis set group =>   1
Atom   4C    basis set group =>   1
Atom   5C    basis set group =>   1
Atom   6C    basis set group =>   1
Atom   7C    basis set group =>   1
Atom   8C    basis set group =>   1
Atom   9C    basis set group =>   1
Atom  10C    basis set group =>   1
Atom  11O    basis set group =>   3
Atom  12C    basis set group =>   1
Atom  13C    basis set group =>   1
Atom  14C    basis set group =>   1
Atom  15C    basis set group =>   1
Atom  16C    basis set group =>   1
Atom  17C    basis set group =>   1
Atom  18C    basis set group =>   1
Atom  19F    basis set group =>   4
Atom  20F    basis set group =>   4
Atom  21F    basis set group =>   4
Atom  22H    basis set group =>   5
Atom  23H    basis set group =>   5
Atom  24H    basis set group =>   5
Atom  25H    basis set group =>   5
Atom  26H    basis set group =>   5
Atom  27H    basis set group =>   5
Atom  28H    basis set group =>   5
Atom  29H    basis set group =>   5
Atom  30H    basis set group =>   5
Atom  31H    basis set group =>   5
Atom  32H    basis set group =>   5
Atom  33H    basis set group =>   5
Atom  34H    basis set group =>   5
Atom  35H    basis set group =>   5
Atom  36H    basis set group =>   5
Atom  37H    basis set group =>   5
Atom  38H    basis set group =>   5
Atom  39H    basis set group =>   5
Atom  40H    basis set group =>   5


           ************************************************************
           *        Program running with 8 parallel MPI-processes     *
           *              working on a common directory               *
           ************************************************************
------------------------------------------------------------------------------
                           ORCA GTO INTEGRAL CALCULATION
------------------------------------------------------------------------------
------------------------------------------------------------------------------
                   ___                                                        
                  /   \      - P O W E R E D   B Y -                         
                 /     \                                                     
                 |  |  |   _    _      __       _____    __    __             
                 |  |  |  | |  | |    /  \     |  _  \  |  |  /  |          
                  \  \/   | |  | |   /    \    | | | |  |  | /  /          
                 / \  \   | |__| |  /  /\  \   | |_| |  |  |/  /          
                |  |  |   |  __  | /  /__\  \  |    /   |      \           
                |  |  |   | |  | | |   __   |  |    \   |  |\   \          
                \     /   | |  | | |  |  |  |  | |\  \  |  | \   \       
                 \___/    |_|  |_| |__|  |__|  |_| \__\ |__|  \__/        
                                                                              
                      - O R C A' S   B I G   F R I E N D -                    
                                      &                                       
                       - I N T E G R A L  F E E D E R -                       
                                                                              
 v1 FN, 2020, v2 2021                                                         
------------------------------------------------------------------------------


Reading SHARK input file Fluoxetine_55.SHARKINP.tmp ... ok
----------------------
SHARK INTEGRAL PACKAGE
----------------------

Number of atoms                             ...     41
Number of basis functions                   ...    948
Number of shells                            ...    356
Maximum angular momentum                    ...      3
Integral batch strategy                     ... SHARK/LIBINT Hybrid
RI-J (if used) integral strategy            ... SPLIT-RIJ (Revised 2003 algorithm where possible)
Printlevel                                  ...      1
Contraction scheme used                     ... SEGMENTED contraction
Coulomb Range Separation                    ... NOT USED
Exchange Range Separation                   ... NOT USED
Finite Nucleus Model                        ... NOT USED
Auxiliary Coulomb fitting basis             ... NOT available
Auxiliary J/K fitting basis                 ... NOT available
Auxiliary Correlation fitting basis         ... AVAILABLE
   # of basis functions in Aux-C            ...   2242
   # of shells in Aux-C                     ...    674
   Maximum angular momentum in Aux-C        ...      4
Auxiliary 'external' fitting basis          ... NOT available
Integral threshold                          ...     1.000000e-12
Primitive cut-off                           ...     1.000000e-14
Primitive pair pre-selection threshold      ...     1.000000e-14

Calculating pre-screening integrals         ... done (  0.1 sec) Dimension = 356
Organizing shell pair data                  ... done (  0.3 sec)
Shell pair information
Total number of shell pairs                 ...     63546
Shell pairs after pre-screening             ...     45387
Total number of primitive shell pairs       ...    176069
Primitive shell pairs kept                  ...     87406
          la=0 lb=0:  10026 shell pairs
          la=1 lb=0:  12969 shell pairs
          la=1 lb=1:   4257 shell pairs
          la=2 lb=0:   7085 shell pairs
          la=2 lb=1:   4658 shell pairs
          la=2 lb=2:   1279 shell pairs
          la=3 lb=0:   2452 shell pairs
          la=3 lb=1:   1622 shell pairs
          la=3 lb=2:    870 shell pairs
          la=3 lb=3:    169 shell pairs

Calculating one electron integrals          ... done (  0.1 sec)
Calculating RI/C V-Matrix + Cholesky decomp.... done (  0.3 sec)
Calculating Nuclear repulsion               ... done (  0.0 sec) ENN=   1829.133439224086 Eh

SHARK setup successfully completed in   1.3 seconds

Maximum memory used throughout the entire GTOINT-calculation: 71.8 MB
[1696462133.745615] [nc10934:1092058:0]          mpool.c:42   UCX  WARN  object 0xba140c0 was not returned to mpool ucp_requests
[1696462133.745632] [nc10934:1092058:0]          mpool.c:42   UCX  WARN  object 0xba14280 was not returned to mpool ucp_requests
[1696462133.745637] [nc10934:1092058:0]          mpool.c:42   UCX  WARN  object 0xba14440 was not returned to mpool ucp_requests
[1696462133.745640] [nc10934:1092058:0]          mpool.c:42   UCX  WARN  object 0xba14600 was not returned to mpool ucp_requests
[1696462133.745644] [nc10934:1092058:0]          mpool.c:42   UCX  WARN  object 0xba147c0 was not returned to mpool ucp_requests
[1696462133.745647] [nc10934:1092058:0]          mpool.c:42   UCX  WARN  object 0xba14980 was not returned to mpool ucp_requests
[1696462133.745651] [nc10934:1092058:0]          mpool.c:42   UCX  WARN  object 0xba14b40 was not returned to mpool ucp_requests
[1696462133.745655] [nc10934:1092058:0]          mpool.c:42   UCX  WARN  object 0xba14d00 was not returned to mpool ucp_requests
[1696462133.745658] [nc10934:1092058:0]          mpool.c:42   UCX  WARN  object 0xba14ec0 was not returned to mpool ucp_requests
[1696462133.745662] [nc10934:1092058:0]          mpool.c:42   UCX  WARN  object 0xba15080 was not returned to mpool ucp_requests
[1696462133.748734] [nc10934:1092061:0]          mpool.c:42   UCX  WARN  object 0xa6c4200 was not returned to mpool ucp_requests
[1696462133.748746] [nc10934:1092061:0]          mpool.c:42   UCX  WARN  object 0xa6c43c0 was not returned to mpool ucp_requests
[1696462133.748752] [nc10934:1092061:0]          mpool.c:42   UCX  WARN  object 0xa6c4580 was not returned to mpool ucp_requests
[1696462133.748757] [nc10934:1092061:0]          mpool.c:42   UCX  WARN  object 0xa6c4740 was not returned to mpool ucp_requests
[1696462133.748768] [nc10934:1092061:0]          mpool.c:42   UCX  WARN  object 0xa6c4900 was not returned to mpool ucp_requests
[1696462133.748772] [nc10934:1092061:0]          mpool.c:42   UCX  WARN  object 0xa6c4ac0 was not returned to mpool ucp_requests
[1696462133.748775] [nc10934:1092061:0]          mpool.c:42   UCX  WARN  object 0xa6c4c80 was not returned to mpool ucp_requests
[1696462133.748778] [nc10934:1092061:0]          mpool.c:42   UCX  WARN  object 0xa6c4e40 was not returned to mpool ucp_requests
[1696462133.748782] [nc10934:1092061:0]          mpool.c:42   UCX  WARN  object 0xa6c5000 was not returned to mpool ucp_requests
[1696462133.748785] [nc10934:1092061:0]          mpool.c:42   UCX  WARN  object 0xa6c51c0 was not returned to mpool ucp_requests
[1696462133.748788] [nc10934:1092061:0]          mpool.c:42   UCX  WARN  object 0xa6c5380 was not returned to mpool ucp_requests
[1696462133.748791] [nc10934:1092061:0]          mpool.c:42   UCX  WARN  object 0xa6c5540 was not returned to mpool ucp_requests
[1696462133.748794] [nc10934:1092061:0]          mpool.c:42   UCX  WARN  object 0xa6c5700 was not returned to mpool ucp_requests
[1696462133.748796] [nc10934:1092061:0]          mpool.c:42   UCX  WARN  object 0xa6c58c0 was not returned to mpool ucp_requests
[1696462133.748800] [nc10934:1092061:0]          mpool.c:42   UCX  WARN  object 0xa6c5a80 was not returned to mpool ucp_requests
[1696462133.748802] [nc10934:1092061:0]          mpool.c:42   UCX  WARN  object 0xa6c5c40 was not returned to mpool ucp_requests
[1696462133.748806] [nc10934:1092061:0]          mpool.c:42   UCX  WARN  object 0xa6c5e00 was not returned to mpool ucp_requests
[1696462133.748808] [nc10934:1092061:0]          mpool.c:42   UCX  WARN  object 0xa6c5fc0 was not returned to mpool ucp_requests
[1696462133.748812] [nc10934:1092061:0]          mpool.c:42   UCX  WARN  object 0xa6c6180 was not returned to mpool ucp_requests
[1696462133.754962] [nc10934:1092063:0]          mpool.c:42   UCX  WARN  object 0xbbce080 was not returned to mpool ucp_requests
[1696462133.754978] [nc10934:1092063:0]          mpool.c:42   UCX  WARN  object 0xbbce240 was not returned to mpool ucp_requests
[1696462133.754982] [nc10934:1092063:0]          mpool.c:42   UCX  WARN  object 0xbbce400 was not returned to mpool ucp_requests
[1696462133.754984] [nc10934:1092063:0]          mpool.c:42   UCX  WARN  object 0xbbce5c0 was not returned to mpool ucp_requests
[1696462133.754987] [nc10934:1092063:0]          mpool.c:42   UCX  WARN  object 0xbbce780 was not returned to mpool ucp_requests
[1696462133.754989] [nc10934:1092063:0]          mpool.c:42   UCX  WARN  object 0xbbce940 was not returned to mpool ucp_requests
[1696462133.754991] [nc10934:1092063:0]          mpool.c:42   UCX  WARN  object 0xbbceb00 was not returned to mpool ucp_requests
[1696462133.754994] [nc10934:1092063:0]          mpool.c:42   UCX  WARN  object 0xbbcecc0 was not returned to mpool ucp_requests
[1696462133.754996] [nc10934:1092063:0]          mpool.c:42   UCX  WARN  object 0xbbcee80 was not returned to mpool ucp_requests
[1696462133.754999] [nc10934:1092063:0]          mpool.c:42   UCX  WARN  object 0xbbcf040 was not returned to mpool ucp_requests
[1696462133.755001] [nc10934:1092063:0]          mpool.c:42   UCX  WARN  object 0xbbcf200 was not returned to mpool ucp_requests
[1696462133.755003] [nc10934:1092063:0]          mpool.c:42   UCX  WARN  object 0xbbcf3c0 was not returned to mpool ucp_requests
[1696462133.755006] [nc10934:1092063:0]          mpool.c:42   UCX  WARN  object 0xbbcf580 was not returned to mpool ucp_requests
[1696462133.755008] [nc10934:1092063:0]          mpool.c:42   UCX  WARN  object 0xbbcf740 was not returned to mpool ucp_requests
[1696462133.755011] [nc10934:1092063:0]          mpool.c:42   UCX  WARN  object 0xbbcf900 was not returned to mpool ucp_requests
[1696462133.755013] [nc10934:1092063:0]          mpool.c:42   UCX  WARN  object 0xbbcfac0 was not returned to mpool ucp_requests
[1696462133.755015] [nc10934:1092063:0]          mpool.c:42   UCX  WARN  object 0xbbcfc80 was not returned to mpool ucp_requests
[1696462133.756219] [nc10934:1092060:0]          mpool.c:42   UCX  WARN  object 0xb58f100 was not returned to mpool ucp_requests
[1696462133.756237] [nc10934:1092060:0]          mpool.c:42   UCX  WARN  object 0xb58f2c0 was not returned to mpool ucp_requests
[1696462133.756243] [nc10934:1092060:0]          mpool.c:42   UCX  WARN  object 0xb58f480 was not returned to mpool ucp_requests
[1696462133.756248] [nc10934:1092060:0]          mpool.c:42   UCX  WARN  object 0xb58f640 was not returned to mpool ucp_requests
[1696462133.756250] [nc10934:1092060:0]          mpool.c:42   UCX  WARN  object 0xb58f800 was not returned to mpool ucp_requests
[1696462133.756256] [nc10934:1092060:0]          mpool.c:42   UCX  WARN  object 0xb58f9c0 was not returned to mpool ucp_requests
[1696462133.756261] [nc10934:1092060:0]          mpool.c:42   UCX  WARN  object 0xb58fb80 was not returned to mpool ucp_requests
[1696462133.756265] [nc10934:1092060:0]          mpool.c:42   UCX  WARN  object 0xb58fd40 was not returned to mpool ucp_requests
[1696462133.756269] [nc10934:1092060:0]          mpool.c:42   UCX  WARN  object 0xb58ff00 was not returned to mpool ucp_requests
[1696462133.756273] [nc10934:1092060:0]          mpool.c:42   UCX  WARN  object 0xb5900c0 was not returned to mpool ucp_requests
[1696462133.756277] [nc10934:1092060:0]          mpool.c:42   UCX  WARN  object 0xb590280 was not returned to mpool ucp_requests
[1696462133.756281] [nc10934:1092060:0]          mpool.c:42   UCX  WARN  object 0xb590440 was not returned to mpool ucp_requests
[1696462133.756285] [nc10934:1092060:0]          mpool.c:42   UCX  WARN  object 0xb590600 was not returned to mpool ucp_requests
[1696462133.756290] [nc10934:1092060:0]          mpool.c:42   UCX  WARN  object 0xb5907c0 was not returned to mpool ucp_requests
[1696462133.756294] [nc10934:1092060:0]          mpool.c:42   UCX  WARN  object 0xb590980 was not returned to mpool ucp_requests
[1696462133.756297] [nc10934:1092060:0]          mpool.c:42   UCX  WARN  object 0xb590b40 was not returned to mpool ucp_requests
[1696462133.756301] [nc10934:1092060:0]          mpool.c:42   UCX  WARN  object 0xb590d00 was not returned to mpool ucp_requests
[1696462133.756305] [nc10934:1092060:0]          mpool.c:42   UCX  WARN  object 0xb590ec0 was not returned to mpool ucp_requests
[1696462133.758744] [nc10934:1092062:0]          mpool.c:42   UCX  WARN  object 0xa5f43c0 was not returned to mpool ucp_requests
[1696462133.758790] [nc10934:1092062:0]          mpool.c:42   UCX  WARN  object 0xa5f4580 was not returned to mpool ucp_requests
[1696462133.758793] [nc10934:1092062:0]          mpool.c:42   UCX  WARN  object 0xa5f4740 was not returned to mpool ucp_requests
[1696462133.758796] [nc10934:1092062:0]          mpool.c:42   UCX  WARN  object 0xa5f4900 was not returned to mpool ucp_requests
[1696462133.758799] [nc10934:1092062:0]          mpool.c:42   UCX  WARN  object 0xa5f4ac0 was not returned to mpool ucp_requests
[1696462133.758801] [nc10934:1092062:0]          mpool.c:42   UCX  WARN  object 0xa5f4c80 was not returned to mpool ucp_requests
[1696462133.758803] [nc10934:1092062:0]          mpool.c:42   UCX  WARN  object 0xa5f4e40 was not returned to mpool ucp_requests
[1696462133.758806] [nc10934:1092062:0]          mpool.c:42   UCX  WARN  object 0xa5f5000 was not returned to mpool ucp_requests
[1696462133.758808] [nc10934:1092062:0]          mpool.c:42   UCX  WARN  object 0xa5f51c0 was not returned to mpool ucp_requests
[1696462133.758810] [nc10934:1092062:0]          mpool.c:42   UCX  WARN  object 0xa5f5380 was not returned to mpool ucp_requests
[1696462133.758813] [nc10934:1092062:0]          mpool.c:42   UCX  WARN  object 0xa5f5540 was not returned to mpool ucp_requests
[1696462133.758815] [nc10934:1092062:0]          mpool.c:42   UCX  WARN  object 0xa5f5700 was not returned to mpool ucp_requests
[1696462133.758817] [nc10934:1092062:0]          mpool.c:42   UCX  WARN  object 0xa5f58c0 was not returned to mpool ucp_requests
[1696462133.758820] [nc10934:1092062:0]          mpool.c:42   UCX  WARN  object 0xa5f5a80 was not returned to mpool ucp_requests
[1696462133.758822] [nc10934:1092062:0]          mpool.c:42   UCX  WARN  object 0xa5f5c40 was not returned to mpool ucp_requests
[1696462133.758824] [nc10934:1092062:0]          mpool.c:42   UCX  WARN  object 0xa5f5e00 was not returned to mpool ucp_requests
[1696462133.758826] [nc10934:1092062:0]          mpool.c:42   UCX  WARN  object 0xa5f5fc0 was not returned to mpool ucp_requests
[1696462133.758829] [nc10934:1092062:0]          mpool.c:42   UCX  WARN  object 0xa5f6180 was not returned to mpool ucp_requests
[1696462133.758831] [nc10934:1092062:0]          mpool.c:42   UCX  WARN  object 0xa5f6340 was not returned to mpool ucp_requests
[1696462133.758979] [nc10934:1092064:0]          mpool.c:42   UCX  WARN  object 0xb012a40 was not returned to mpool ucp_requests
[1696462133.758991] [nc10934:1092064:0]          mpool.c:42   UCX  WARN  object 0xb012c00 was not returned to mpool ucp_requests
[1696462133.758994] [nc10934:1092064:0]          mpool.c:42   UCX  WARN  object 0xb012dc0 was not returned to mpool ucp_requests
[1696462133.758997] [nc10934:1092064:0]          mpool.c:42   UCX  WARN  object 0xb012f80 was not returned to mpool ucp_requests
[1696462133.759000] [nc10934:1092064:0]          mpool.c:42   UCX  WARN  object 0xb013140 was not returned to mpool ucp_requests
[1696462133.759002] [nc10934:1092064:0]          mpool.c:42   UCX  WARN  object 0xb013300 was not returned to mpool ucp_requests
[1696462133.759005] [nc10934:1092064:0]          mpool.c:42   UCX  WARN  object 0xb0134c0 was not returned to mpool ucp_requests
[1696462133.759007] [nc10934:1092064:0]          mpool.c:42   UCX  WARN  object 0xb013680 was not returned to mpool ucp_requests
[1696462133.759010] [nc10934:1092064:0]          mpool.c:42   UCX  WARN  object 0xb013840 was not returned to mpool ucp_requests
[1696462133.759012] [nc10934:1092064:0]          mpool.c:42   UCX  WARN  object 0xb013a00 was not returned to mpool ucp_requests
[1696462133.759015] [nc10934:1092064:0]          mpool.c:42   UCX  WARN  object 0xb013bc0 was not returned to mpool ucp_requests
[1696462133.759017] [nc10934:1092064:0]          mpool.c:42   UCX  WARN  object 0xb013d80 was not returned to mpool ucp_requests
[1696462133.759019] [nc10934:1092064:0]          mpool.c:42   UCX  WARN  object 0xb013f40 was not returned to mpool ucp_requests
[1696462133.759022] [nc10934:1092064:0]          mpool.c:42   UCX  WARN  object 0xb014100 was not returned to mpool ucp_requests
[1696462133.759025] [nc10934:1092064:0]          mpool.c:42   UCX  WARN  object 0xb0142c0 was not returned to mpool ucp_requests
[1696462133.759027] [nc10934:1092064:0]          mpool.c:42   UCX  WARN  object 0xb014480 was not returned to mpool ucp_requests
[1696462133.759030] [nc10934:1092064:0]          mpool.c:42   UCX  WARN  object 0xb014640 was not returned to mpool ucp_requests
[1696462133.759386] [nc10934:1092059:0]          mpool.c:42   UCX  WARN  object 0xa484100 was not returned to mpool ucp_requests
[1696462133.759399] [nc10934:1092059:0]          mpool.c:42   UCX  WARN  object 0xa4842c0 was not returned to mpool ucp_requests
[1696462133.759403] [nc10934:1092059:0]          mpool.c:42   UCX  WARN  object 0xa484480 was not returned to mpool ucp_requests
[1696462133.759405] [nc10934:1092059:0]          mpool.c:42   UCX  WARN  object 0xa484640 was not returned to mpool ucp_requests
[1696462133.759408] [nc10934:1092059:0]          mpool.c:42   UCX  WARN  object 0xa484800 was not returned to mpool ucp_requests
[1696462133.759410] [nc10934:1092059:0]          mpool.c:42   UCX  WARN  object 0xa4849c0 was not returned to mpool ucp_requests
[1696462133.759413] [nc10934:1092059:0]          mpool.c:42   UCX  WARN  object 0xa484b80 was not returned to mpool ucp_requests
[1696462133.759416] [nc10934:1092059:0]          mpool.c:42   UCX  WARN  object 0xa484d40 was not returned to mpool ucp_requests
[1696462133.759418] [nc10934:1092059:0]          mpool.c:42   UCX  WARN  object 0xa484f00 was not returned to mpool ucp_requests
[1696462133.759421] [nc10934:1092059:0]          mpool.c:42   UCX  WARN  object 0xa4850c0 was not returned to mpool ucp_requests
[1696462133.759423] [nc10934:1092059:0]          mpool.c:42   UCX  WARN  object 0xa485280 was not returned to mpool ucp_requests
[1696462133.759426] [nc10934:1092059:0]          mpool.c:42   UCX  WARN  object 0xa485440 was not returned to mpool ucp_requests
[1696462133.759428] [nc10934:1092059:0]          mpool.c:42   UCX  WARN  object 0xa485600 was not returned to mpool ucp_requests
[1696462133.759431] [nc10934:1092059:0]          mpool.c:42   UCX  WARN  object 0xa4857c0 was not returned to mpool ucp_requests
[1696462133.759433] [nc10934:1092059:0]          mpool.c:42   UCX  WARN  object 0xa485980 was not returned to mpool ucp_requests
[1696462133.759436] [nc10934:1092059:0]          mpool.c:42   UCX  WARN  object 0xa485b40 was not returned to mpool ucp_requests
[1696462133.759438] [nc10934:1092059:0]          mpool.c:42   UCX  WARN  object 0xa485d00 was not returned to mpool ucp_requests
[1696462133.759440] [nc10934:1092059:0]          mpool.c:42   UCX  WARN  object 0xa485ec0 was not returned to mpool ucp_requests


           ************************************************************
           *        Program running with 8 parallel MPI-processes     *
           *              working on a common directory               *
           ************************************************************
-------------------------------------------------------------------------------
                                 ORCA SCF
-------------------------------------------------------------------------------

------------
SCF SETTINGS
------------
Hamiltonian:
 Ab initio Hamiltonian  Method          .... Hartree-Fock(GTOs)


General Settings:
 Integral files         IntName         .... Fluoxetine_55
 Hartree-Fock type      HFTyp           .... RHF
 Total Charge           Charge          ....    1
 Multiplicity           Mult            ....    1
 Number of Electrons    NEL             ....  162
 Basis Dimension        Dim             ....  948
 Nuclear Repulsion      ENuc            ....   1829.1334392241 Eh

Convergence Acceleration:
 DIIS                   CNVDIIS         .... on
   Start iteration      DIISMaxIt       ....    12
   Startup error        DIISStart       ....  0.200000
   # of expansion vecs  DIISMaxEq       ....     5
   Bias factor          DIISBfac        ....   1.050
   Max. coefficient     DIISMaxC        ....  10.000
 Trust-Rad. Augm. Hess. CNVTRAH         .... auto
   Auto Start mean grad. ratio tolernc. ....  1.125000
   Auto Start start iteration           ....    20
   Auto Start num. interpolation iter.  ....    10
   Max. Number of Micro iterations      ....    16
   Max. Number of Macro iterations      .... Maxiter - #DIIS iter
   Number of Davidson start vectors     ....     2
   Converg. threshold I  (grad. norm)   ....   2.000e-06
   Converg. threshold II (energy diff.) ....   1.000e-09
   Grad. Scal. Fac. for Micro threshold ....   0.100
   Minimum threshold for Micro iter.    ....   0.010
   NR start threshold (gradient norm)   ....   0.001
   Initial trust radius                 ....   0.400
   Minimum AH scaling param. (alpha)    ....   1.000
   Maximum AH scaling param. (alpha)    .... 1000.000
   Orbital update algorithm             .... Taylor
   White noise on init. David. guess    .... on
   Maximum white noise                  ....   0.010
   Quad. conv. algorithm                .... NR
 SOSCF                  CNVSOSCF        .... on
   Start iteration      SOSCFMaxIt      ....   150
   Startup grad/error   SOSCFStart      ....  0.003300
 Level Shifting         CNVShift        .... on
   Level shift para.    LevelShift      ....    0.2500
   Turn off err/grad.   ShiftErr        ....    0.0010
 Zerner damping         CNVZerner       .... off
 Static damping         CNVDamp         .... on
   Fraction old density DampFac         ....    0.7000
   Max. Damping (<1)    DampMax         ....    0.9800
   Min. Damping (>=0)   DampMin         ....    0.0000
   Turn off err/grad.   DampErr         ....    0.1000
 Fernandez-Rico         CNVRico         .... off

SCF Procedure:
 Maximum # iterations   MaxIter         ....   125
 SCF integral mode      SCFMode         .... Direct
   Integral package                     .... SHARK and LIBINT hybrid scheme
 Reset frequency        DirectResetFreq ....    20
 Integral Threshold     Thresh          ....  1.000e-12 Eh
 Primitive CutOff       TCut            ....  1.000e-14 Eh

Convergence Tolerance:
 Convergence Check Mode ConvCheckMode   .... Total+1el-Energy
 Convergence forced     ConvForced      .... 1
 Energy Change          TolE            ....  1.000e-09 Eh
 1-El. energy change                    ....  1.000e-06 Eh
 Orbital Gradient       TolG            ....  2.000e-06
 Orbital Rotation angle TolX            ....  2.000e-06
 DIIS Error             TolErr          ....  1.000e-08


Diagonalization of the overlap matrix:
Smallest eigenvalue                        ... 5.579e-06
Time for diagonalization                   ...    0.161 sec
Threshold for overlap eigenvalues          ... 1.000e-08
Number of eigenvalues below threshold      ... 0
Time for construction of square roots      ...    0.098 sec
Total time needed                          ...    0.262 sec

Time for model grid setup =    0.655 sec

------------------------------
INITIAL GUESS: MODEL POTENTIAL
------------------------------
Loading Hartree-Fock densities                     ... done
Calculating cut-offs                               ... done
Initializing the effective Hamiltonian             ... done
Setting up the integral package (SHARK)            ... done
Starting the Coulomb interaction                   ... done (   0.7 sec)
Reading the grid                                   ... done
Mapping shells                                     ... done
Starting the XC term evaluation                    ... done (   0.2 sec)
Transforming the Hamiltonian                       ... done (   0.1 sec)
Diagonalizing the Hamiltonian                      ... done (   0.2 sec)
Back transforming the eigenvectors                 ... done (   0.0 sec)
Now organizing SCF variables                       ... done
                      ------------------
                      INITIAL GUESS DONE (   1.8 sec)
                      ------------------
--------------
SCF ITERATIONS
--------------
ITER       Energy         Delta-E        Max-DP      RMS-DP      [F,P]     Damp
               ***  Starting incremental Fock matrix formation  ***
  0  -1081.9029661695   0.000000000000 0.03587394  0.00048728  0.3470765 0.7000
  1  -1082.1586537268  -0.255687557336 0.03510725  0.00040283  0.2522578 0.7000
                               ***Turning on DIIS***
  2  -1082.3214357709  -0.162782044100 0.02532410  0.00029029  0.1826425 0.7000
  3  -1084.2908347475  -1.969398976561 0.01770858  0.00021591  0.1316712 0.7000
  4  -1084.0569862618   0.233848485685 0.04630868  0.00055553  0.0929146 0.0000
  5  -1082.7294739273   1.327512334458 0.00928016  0.00006506  0.0038626 0.0000
                      *** Initiating the SOSCF procedure ***
                           *** Shutting down DIIS ***
                      *** Re-Reading the Fockian *** 
                      *** Removing any level shift *** 
ITER      Energy       Delta-E        Grad      Rot      Max-DP    RMS-DP
  6  -1082.67707792   0.0523960043  0.001246  0.001246  0.006177  0.000031
               *** Restarting incremental Fock matrix formation ***
  7  -1082.67728088  -0.0002029610  0.000664  0.001085  0.003585  0.000016
  8  -1082.67729957  -0.0000186907  0.000195  0.000737  0.002706  0.000012
  9  -1082.67730410  -0.0000045267  0.000079  0.000117  0.000439  0.000003
 10  -1082.67730456  -0.0000004596  0.000053  0.000129  0.000190  0.000001
 11  -1082.67730464  -0.0000000781  0.000018  0.000071  0.000030  0.000000
 12  -1082.67730467  -0.0000000259  0.000010  0.000039  0.000044  0.000000
 13  -1082.67730467  -0.0000000038  0.000003  0.000015  0.000016  0.000000
 14  -1082.67730467  -0.0000000005  0.000001  0.000003  0.000003  0.000000
                  ***Gradient check signals convergence***
              ***Rediagonalizing the Fockian in SOSCF/NRSCF***

               *****************************************************
               *                     SUCCESS                       *
               *           SCF CONVERGED AFTER  15 CYCLES          *
               *****************************************************


----------------
TOTAL SCF ENERGY
----------------

Total Energy       :        -1082.67730467 Eh          -29461.14724 eV

Components:
Nuclear Repulsion  :         1829.13343922 Eh           49773.25130 eV
Electronic Energy  :        -2911.81074389 Eh          -79234.39854 eV
One Electron Energy:        -5100.19922295 Eh         -138783.47647 eV
Two Electron Energy:         2188.38847905 Eh           59549.07793 eV

Virial components:
Potential Energy   :        -2164.52233798 Eh          -58899.64722 eV
Kinetic Energy     :         1081.84503331 Eh           29438.49998 eV
Virial Ratio       :            2.00076931


---------------
SCF CONVERGENCE
---------------

  Last Energy change         ...   -8.1855e-11  Tolerance :   1.0000e-09
  Last MAX-Density change    ...    1.0862e-06  Tolerance :   1.0000e-08
  Last RMS-Density change    ...    1.2856e-08  Tolerance :   1.0000e-09
  Last Orbital Gradient      ...    3.1575e-07  Tolerance :   2.0000e-06
  Last Orbital Rotation      ...    8.7112e-07  Tolerance :   2.0000e-06

             **** THE GBW FILE WAS UPDATED (Fluoxetine_55.gbw) ****
             **** DENSITY Fluoxetine_55.scfp WAS UPDATED ****
             **** ENERGY FILE WAS UPDATED (Fluoxetine_55.en.tmp) ****
             **** THE GBW FILE WAS UPDATED (Fluoxetine_55.gbw) ****
             **** DENSITY Fluoxetine_55.scfp WAS UPDATED ****
----------------
ORBITAL ENERGIES
----------------

  NO   OCC          E(Eh)            E(eV) 
   0   2.0000     -26.397237      -718.3053 
   1   2.0000     -26.396722      -718.2913 
   2   2.0000     -26.392008      -718.1631 
   3   2.0000     -20.710914      -563.5726 
   4   2.0000     -15.847642      -431.2363 
   5   2.0000     -11.570720      -314.8553 
   6   2.0000     -11.447122      -311.4920 
   7   2.0000     -11.445793      -311.4559 
   8   2.0000     -11.436874      -311.2132 
   9   2.0000     -11.412206      -310.5419 
  10   2.0000     -11.388978      -309.9099 
  11   2.0000     -11.379437      -309.6502 
  12   2.0000     -11.369126      -309.3696 
  13   2.0000     -11.368253      -309.3459 
  14   2.0000     -11.367406      -309.3228 
  15   2.0000     -11.366753      -309.3051 
  16   2.0000     -11.362219      -309.1817 
  17   2.0000     -11.344551      -308.7009 
  18   2.0000     -11.342866      -308.6551 
  19   2.0000     -11.338029      -308.5235 
  20   2.0000     -11.336748      -308.4886 
  21   2.0000     -11.331883      -308.3562 
  22   2.0000      -1.790366       -48.7183 
  23   2.0000      -1.695963       -46.1495 
  24   2.0000      -1.690856       -46.0105 
  25   2.0000      -1.546020       -42.0693 
  26   2.0000      -1.485101       -40.4116 
  27   2.0000      -1.300276       -35.3823 
  28   2.0000      -1.270477       -34.5714 
  29   2.0000      -1.233377       -33.5619 
  30   2.0000      -1.173932       -31.9443 
  31   2.0000      -1.153894       -31.3991 
  32   2.0000      -1.149728       -31.2857 
  33   2.0000      -1.130573       -30.7644 
  34   2.0000      -1.124625       -30.6026 
  35   2.0000      -1.083353       -29.4795 
  36   2.0000      -1.032823       -28.1045 
  37   2.0000      -1.002705       -27.2850 
  38   2.0000      -0.968378       -26.3509 
  39   2.0000      -0.957387       -26.0518 
  40   2.0000      -0.950308       -25.8592 
  41   2.0000      -0.945675       -25.7331 
  42   2.0000      -0.917427       -24.9645 
  43   2.0000      -0.882877       -24.0243 
  44   2.0000      -0.880867       -23.9696 
  45   2.0000      -0.870334       -23.6830 
  46   2.0000      -0.856909       -23.3177 
  47   2.0000      -0.853621       -23.2282 
  48   2.0000      -0.829260       -22.5653 
  49   2.0000      -0.828349       -22.5405 
  50   2.0000      -0.792389       -21.5620 
  51   2.0000      -0.786912       -21.4130 
  52   2.0000      -0.772040       -21.0083 
  53   2.0000      -0.770126       -20.9562 
  54   2.0000      -0.759291       -20.6614 
  55   2.0000      -0.752692       -20.4818 
  56   2.0000      -0.748658       -20.3720 
  57   2.0000      -0.738780       -20.1032 
  58   2.0000      -0.737066       -20.0566 
  59   2.0000      -0.734468       -19.9859 
  60   2.0000      -0.725242       -19.7348 
  61   2.0000      -0.722491       -19.6600 
  62   2.0000      -0.721682       -19.6380 
  63   2.0000      -0.708107       -19.2686 
  64   2.0000      -0.707720       -19.2580 
  65   2.0000      -0.703471       -19.1424 
  66   2.0000      -0.693622       -18.8744 
  67   2.0000      -0.688137       -18.7252 
  68   2.0000      -0.674829       -18.3630 
  69   2.0000      -0.663902       -18.0657 
  70   2.0000      -0.654705       -17.8154 
  71   2.0000      -0.628811       -17.1108 
  72   2.0000      -0.621984       -16.9250 
  73   2.0000      -0.618583       -16.8325 
  74   2.0000      -0.616283       -16.7699 
  75   2.0000      -0.596342       -16.2273 
  76   2.0000      -0.584631       -15.9086 
  77   2.0000      -0.479708       -13.0535 
  78   2.0000      -0.472181       -12.8487 
  79   2.0000      -0.446552       -12.1513 
  80   2.0000      -0.430772       -11.7219 
  81   0.0000      -0.037254        -1.0137 
  82   0.0000      -0.022177        -0.6035 
  83   0.0000      -0.016252        -0.4422 
  84   0.0000       0.006323         0.1721 
  85   0.0000       0.017390         0.4732 
  86   0.0000       0.021985         0.5982 
  87   0.0000       0.027309         0.7431 
  88   0.0000       0.033374         0.9082 
  89   0.0000       0.040388         1.0990 
  90   0.0000       0.052304         1.4233 
  91   0.0000       0.060333         1.6418 
  92   0.0000       0.063937         1.7398 
  93   0.0000       0.072589         1.9752 
  94   0.0000       0.080968         2.2033 
  95   0.0000       0.084480         2.2988 
  96   0.0000       0.092739         2.5236 
  97   0.0000       0.097529         2.6539 
  98   0.0000       0.099085         2.6962 
  99   0.0000       0.103982         2.8295 
 100   0.0000       0.107752         2.9321 
 101   0.0000       0.122891         3.3440 
 102   0.0000       0.124941         3.3998 
 103   0.0000       0.127147         3.4598 
 104   0.0000       0.140285         3.8174 
 105   0.0000       0.147734         4.0200 
 106   0.0000       0.150734         4.1017 
 107   0.0000       0.160669         4.3720 
 108   0.0000       0.163392         4.4461 
 109   0.0000       0.169576         4.6144 
 110   0.0000       0.186053         5.0628 
 111   0.0000       0.192322         5.2334 
 112   0.0000       0.193763         5.2726 
 113   0.0000       0.202217         5.5026 
 114   0.0000       0.203879         5.5478 
 115   0.0000       0.211388         5.7522 
 116   0.0000       0.214024         5.8239 
 117   0.0000       0.217925         5.9300 
 118   0.0000       0.222074         6.0430 
 119   0.0000       0.226928         6.1750 
 120   0.0000       0.237273         6.4565 
 121   0.0000       0.244077         6.6417 
 122   0.0000       0.246717         6.7135 
 123   0.0000       0.250838         6.8256 
 124   0.0000       0.253512         6.8984 
 125   0.0000       0.261095         7.1047 
 126   0.0000       0.262400         7.1403 
 127   0.0000       0.267842         7.2884 
 128   0.0000       0.275708         7.5024 
 129   0.0000       0.277380         7.5479 
 130   0.0000       0.280664         7.6373 
 131   0.0000       0.288016         7.8373 
 132   0.0000       0.299479         8.1492 
 133   0.0000       0.303895         8.2694 
 134   0.0000       0.310387         8.4461 
 135   0.0000       0.319053         8.6819 
 136   0.0000       0.327122         8.9014 
 137   0.0000       0.328151         8.9294 
 138   0.0000       0.336424         9.1546 
 139   0.0000       0.340751         9.2723 
 140   0.0000       0.345299         9.3961 
 141   0.0000       0.350840         9.5468 
 142   0.0000       0.356002         9.6873 
 143   0.0000       0.360655         9.8139 
 144   0.0000       0.365382         9.9425 
 145   0.0000       0.375757        10.2249 
 146   0.0000       0.378290        10.2938 
 147   0.0000       0.381775        10.3886 
 148   0.0000       0.388459        10.5705 
 149   0.0000       0.390985        10.6392 
 150   0.0000       0.393429        10.7057 
 151   0.0000       0.397311        10.8114 
 152   0.0000       0.402726        10.9587 
 153   0.0000       0.406110        11.0508 
 154   0.0000       0.409744        11.1497 
 155   0.0000       0.415315        11.3013 
 156   0.0000       0.419807        11.4235 
 157   0.0000       0.423013        11.5108 
 158   0.0000       0.426439        11.6040 
 159   0.0000       0.431213        11.7339 
 160   0.0000       0.438105        11.9215 
 161   0.0000       0.441962        12.0264 
 162   0.0000       0.443491        12.0680 
 163   0.0000       0.447086        12.1658 
 164   0.0000       0.449704        12.2371 
 165   0.0000       0.456740        12.4285 
 166   0.0000       0.459962        12.5162 
 167   0.0000       0.470105        12.7922 
 168   0.0000       0.470971        12.8158 
 169   0.0000       0.472414        12.8550 
 170   0.0000       0.474963        12.9244 
 171   0.0000       0.477912        13.0047 
 172   0.0000       0.486399        13.2356 
 173   0.0000       0.489678        13.3248 
 174   0.0000       0.493527        13.4296 
 175   0.0000       0.495452        13.4819 
 176   0.0000       0.500648        13.6233 
 177   0.0000       0.505393        13.7524 
 178   0.0000       0.507405        13.8072 
 179   0.0000       0.517197        14.0736 
 180   0.0000       0.524401        14.2697 
 181   0.0000       0.529589        14.4109 
 182   0.0000       0.535007        14.5583 
 183   0.0000       0.544280        14.8106 
 184   0.0000       0.546488        14.8707 
 185   0.0000       0.553551        15.0629 
 186   0.0000       0.557782        15.1780 
 187   0.0000       0.562461        15.3053 
 188   0.0000       0.564468        15.3599 
 189   0.0000       0.572944        15.5906 
 190   0.0000       0.580049        15.7839 
 191   0.0000       0.584067        15.8933 
 192   0.0000       0.588915        16.0252 
 193   0.0000       0.593137        16.1401 
 194   0.0000       0.593609        16.1529 
 195   0.0000       0.600023        16.3274 
 196   0.0000       0.602880        16.4052 
 197   0.0000       0.619476        16.8568 
 198   0.0000       0.624444        16.9920 
 199   0.0000       0.643321        17.5057 
 200   0.0000       0.646687        17.5973 
 201   0.0000       0.654886        17.8204 
 202   0.0000       0.659165        17.9368 
 203   0.0000       0.664554        18.0834 
 204   0.0000       0.676820        18.4172 
 205   0.0000       0.687028        18.6950 
 206   0.0000       0.697929        18.9916 
 207   0.0000       0.710365        19.3300 
 208   0.0000       0.716935        19.5088 
 209   0.0000       0.723892        19.6981 
 210   0.0000       0.730259        19.8714 
 211   0.0000       0.735245        20.0070 
 212   0.0000       0.737632        20.0720 
 213   0.0000       0.749165        20.3858 
 214   0.0000       0.754872        20.5411 
 215   0.0000       0.762823        20.7575 
 216   0.0000       0.765115        20.8198 
 217   0.0000       0.774181        21.0665 
 218   0.0000       0.777858        21.1666 
 219   0.0000       0.782926        21.3045 
 220   0.0000       0.784938        21.3592 
 221   0.0000       0.793800        21.6004 
 222   0.0000       0.803995        21.8778 
 223   0.0000       0.809333        22.0231 
 224   0.0000       0.812789        22.1171 
 225   0.0000       0.813899        22.1473 
 226   0.0000       0.818677        22.2773 
 227   0.0000       0.824553        22.4372 
 228   0.0000       0.831526        22.6270 
 229   0.0000       0.833079        22.6692 
 230   0.0000       0.841051        22.8862 
 231   0.0000       0.845317        23.0023 
 232   0.0000       0.852914        23.2090 
 233   0.0000       0.856794        23.3145 
 234   0.0000       0.869067        23.6485 
 235   0.0000       0.870451        23.6862 
 236   0.0000       0.880181        23.9509 
 237   0.0000       0.883546        24.0425 
 238   0.0000       0.891791        24.2669 
 239   0.0000       0.899368        24.4730 
 240   0.0000       0.903498        24.5854 
 241   0.0000       0.907986        24.7075 
 242   0.0000       0.911787        24.8110 
 243   0.0000       0.912090        24.8192 
 244   0.0000       0.923757        25.1367 
 245   0.0000       0.926764        25.2185 
 246   0.0000       0.936923        25.4950 
 247   0.0000       0.942983        25.6599 
 248   0.0000       0.948763        25.8171 
 249   0.0000       0.953356        25.9421 
 250   0.0000       0.958591        26.0846 
 251   0.0000       0.962791        26.1989 
 252   0.0000       0.973234        26.4830 
 253   0.0000       0.984331        26.7850 
 254   0.0000       0.987675        26.8760 
 255   0.0000       0.990905        26.9639 
 256   0.0000       0.999595        27.2004 
 257   0.0000       1.001097        27.2412 
 258   0.0000       1.012530        27.5523 
 259   0.0000       1.024166        27.8690 
 260   0.0000       1.027555        27.9612 
 261   0.0000       1.039523        28.2869 
 262   0.0000       1.047291        28.4982 
 263   0.0000       1.051428        28.6108 
 264   0.0000       1.055990        28.7349 
 265   0.0000       1.062236        28.9049 
 266   0.0000       1.069319        29.0977 
 267   0.0000       1.071878        29.1673 
 268   0.0000       1.073873        29.2216 
 269   0.0000       1.091476        29.7006 
 270   0.0000       1.095883        29.8205 
 271   0.0000       1.103228        30.0204 
 272   0.0000       1.110964        30.2309 
 273   0.0000       1.121571        30.5195 
 274   0.0000       1.125854        30.6360 
 275   0.0000       1.129420        30.7331 
 276   0.0000       1.131109        30.7790 
 277   0.0000       1.134022        30.8583 
 278   0.0000       1.146404        31.1952 
 279   0.0000       1.151214        31.3261 
 280   0.0000       1.154497        31.4155 
 281   0.0000       1.161538        31.6070 
 282   0.0000       1.162812        31.6417 
 283   0.0000       1.170973        31.8638 
 284   0.0000       1.178283        32.0627 
 285   0.0000       1.180125        32.1128 
 286   0.0000       1.187315        32.3085 
 287   0.0000       1.195865        32.5411 
 288   0.0000       1.197765        32.5928 
 289   0.0000       1.210995        32.9529 
 290   0.0000       1.214306        33.0429 
 291   0.0000       1.220047        33.1992 
 292   0.0000       1.223671        33.2978 
 293   0.0000       1.229549        33.4577 
 294   0.0000       1.235269        33.6134 
 295   0.0000       1.244795        33.8726 
 296   0.0000       1.252556        34.0838 
 297   0.0000       1.260644        34.3039 
 298   0.0000       1.265604        34.4388 
 299   0.0000       1.276865        34.7453 
 300   0.0000       1.281562        34.8731 
 301   0.0000       1.291240        35.1364 
 302   0.0000       1.295270        35.2461 
 303   0.0000       1.298919        35.3454 
 304   0.0000       1.305536        35.5255 
 305   0.0000       1.312569        35.7168 
 306   0.0000       1.314902        35.7803 
 307   0.0000       1.321096        35.9488 
 308   0.0000       1.330598        36.2074 
 309   0.0000       1.349856        36.7315 
 310   0.0000       1.352332        36.7988 
 311   0.0000       1.363906        37.1138 
 312   0.0000       1.368452        37.2375 
 313   0.0000       1.374901        37.4129 
 314   0.0000       1.376922        37.4679 
 315   0.0000       1.385914        37.7126 
 316   0.0000       1.388930        37.7947 
 317   0.0000       1.402163        38.1548 
 318   0.0000       1.407548        38.3013 
 319   0.0000       1.411056        38.3968 
 320   0.0000       1.414444        38.4890 
 321   0.0000       1.426215        38.8093 
 322   0.0000       1.429243        38.8917 
 323   0.0000       1.436115        39.0787 
 324   0.0000       1.441584        39.2275 
 325   0.0000       1.443062        39.2677 
 326   0.0000       1.447835        39.3976 
 327   0.0000       1.450303        39.4648 
 328   0.0000       1.461576        39.7715 
 329   0.0000       1.467068        39.9209 
 330   0.0000       1.481937        40.3256 
 331   0.0000       1.484645        40.3992 
 332   0.0000       1.491328        40.5811 
 333   0.0000       1.500557        40.8322 
 334   0.0000       1.509265        41.0692 
 335   0.0000       1.513234        41.1772 
 336   0.0000       1.514769        41.2190 
 337   0.0000       1.521178        41.3933 
 338   0.0000       1.525835        41.5201 
 339   0.0000       1.529534        41.6207 
 340   0.0000       1.538168        41.8557 
 341   0.0000       1.543324        41.9960 
 342   0.0000       1.549033        42.1513 
 343   0.0000       1.552951        42.2579 
 344   0.0000       1.562255        42.5111 
 345   0.0000       1.569587        42.7106 
 346   0.0000       1.582835        43.0711 
 347   0.0000       1.588427        43.2233 
 348   0.0000       1.591716        43.3128 
 349   0.0000       1.604562        43.6624 
 350   0.0000       1.609895        43.8075 
 351   0.0000       1.620829        44.1050 
 352   0.0000       1.635826        44.5131 
 353   0.0000       1.637472        44.5579 
 354   0.0000       1.645600        44.7790 
 355   0.0000       1.649724        44.8913 
 356   0.0000       1.660492        45.1843 
 357   0.0000       1.673644        45.5422 
 358   0.0000       1.679127        45.6914 
 359   0.0000       1.682081        45.7718 
 360   0.0000       1.685525        45.8655 
 361   0.0000       1.690700        46.0063 
 362   0.0000       1.705074        46.3974 
 363   0.0000       1.711429        46.5703 
 364   0.0000       1.719542        46.7911 
 365   0.0000       1.727123        46.9974 
 366   0.0000       1.729784        47.0698 
 367   0.0000       1.733374        47.1675 
 368   0.0000       1.746129        47.5146 
 369   0.0000       1.752040        47.6754 
 370   0.0000       1.757720        47.8300 
 371   0.0000       1.765280        48.0357 
 372   0.0000       1.776769        48.3483 
 373   0.0000       1.789289        48.6890 
 374   0.0000       1.800174        48.9852 
 375   0.0000       1.806414        49.1550 
 376   0.0000       1.818212        49.4761 
 377   0.0000       1.824599        49.6499 
 378   0.0000       1.833243        49.8851 
 379   0.0000       1.847696        50.2784 
 380   0.0000       1.859930        50.6113 
 381   0.0000       1.870257        50.8923 
 382   0.0000       1.874922        51.0192 
 383   0.0000       1.879948        51.1560 
 384   0.0000       1.884399        51.2771 
 385   0.0000       1.890624        51.4465 
 386   0.0000       1.892328        51.4929 
 387   0.0000       1.909115        51.9496 
 388   0.0000       1.926753        52.4296 
 389   0.0000       1.935298        52.6621 
 390   0.0000       1.937850        52.7316 
 391   0.0000       1.946895        52.9777 
 392   0.0000       1.966429        53.5092 
 393   0.0000       1.969012        53.5795 
 394   0.0000       1.979291        53.8593 
 395   0.0000       1.984911        54.0122 
 396   0.0000       2.008556        54.6556 
 397   0.0000       2.012413        54.7605 
 398   0.0000       2.025979        55.1297 
 399   0.0000       2.056718        55.9662 
 400   0.0000       2.076736        56.5109 
 401   0.0000       2.089157        56.8489 
 402   0.0000       2.096577        57.0508 
 403   0.0000       2.103956        57.2516 
 404   0.0000       2.106108        57.3101 
 405   0.0000       2.116790        57.6008 
 406   0.0000       2.128132        57.9094 
 407   0.0000       2.135979        58.1229 
 408   0.0000       2.155793        58.6621 
 409   0.0000       2.163684        58.8768 
 410   0.0000       2.167785        58.9884 
 411   0.0000       2.184016        59.4301 
 412   0.0000       2.188570        59.5540 
 413   0.0000       2.196925        59.7814 
 414   0.0000       2.208816        60.1049 
 415   0.0000       2.216032        60.3013 
 416   0.0000       2.225202        60.5508 
 417   0.0000       2.230099        60.6841 
 418   0.0000       2.246992        61.1438 
 419   0.0000       2.251118        61.2560 
 420   0.0000       2.262958        61.5782 
 421   0.0000       2.268356        61.7251 
 422   0.0000       2.285349        62.1875 
 423   0.0000       2.292245        62.3752 
 424   0.0000       2.299432        62.5707 
 425   0.0000       2.318497        63.0895 
 426   0.0000       2.333783        63.5055 
 427   0.0000       2.345245        63.8174 
 428   0.0000       2.349626        63.9366 
 429   0.0000       2.367280        64.4170 
 430   0.0000       2.377285        64.6892 
 431   0.0000       2.386627        64.9434 
 432   0.0000       2.399418        65.2915 
 433   0.0000       2.410977        65.6060 
 434   0.0000       2.419403        65.8353 
 435   0.0000       2.438276        66.3489 
 436   0.0000       2.447040        66.5873 
 437   0.0000       2.462772        67.0154 
 438   0.0000       2.478909        67.4545 
 439   0.0000       2.488274        67.7094 
 440   0.0000       2.496054        67.9211 
 441   0.0000       2.511693        68.3466 
 442   0.0000       2.529020        68.8181 
 443   0.0000       2.538060        69.0641 
 444   0.0000       2.539605        69.1062 
 445   0.0000       2.551216        69.4221 
 446   0.0000       2.567180        69.8565 
 447   0.0000       2.577057        70.1253 
 448   0.0000       2.583852        70.3102 
 449   0.0000       2.589321        70.4590 
 450   0.0000       2.598867        70.7188 
 451   0.0000       2.615463        71.1704 
 452   0.0000       2.629704        71.5579 
 453   0.0000       2.638538        71.7983 
 454   0.0000       2.645462        71.9867 
 455   0.0000       2.652912        72.1894 
 456   0.0000       2.656675        72.2918 
 457   0.0000       2.658140        72.3317 
 458   0.0000       2.659350        72.3646 
 459   0.0000       2.674349        72.7727 
 460   0.0000       2.678961        72.8982 
 461   0.0000       2.690994        73.2257 
 462   0.0000       2.695936        73.3601 
 463   0.0000       2.710493        73.7563 
 464   0.0000       2.731998        74.3414 
 465   0.0000       2.755204        74.9729 
 466   0.0000       2.763172        75.1897 
 467   0.0000       2.767410        75.3050 
 468   0.0000       2.786356        75.8206 
 469   0.0000       2.793003        76.0015 
 470   0.0000       2.798677        76.1559 
 471   0.0000       2.814905        76.5975 
 472   0.0000       2.817855        76.6777 
 473   0.0000       2.825882        76.8962 
 474   0.0000       2.837094        77.2013 
 475   0.0000       2.846626        77.4606 
 476   0.0000       2.856806        77.7376 
 477   0.0000       2.871591        78.1400 
 478   0.0000       2.877448        78.2993 
 479   0.0000       2.884959        78.5037 
 480   0.0000       2.889760        78.6344 
 481   0.0000       2.897155        78.8356 
 482   0.0000       2.905697        79.0680 
 483   0.0000       2.909038        79.1589 
 484   0.0000       2.919674        79.4484 
 485   0.0000       2.923235        79.5453 
 486   0.0000       2.930575        79.7450 
 487   0.0000       2.942736        80.0759 
 488   0.0000       2.943191        80.0883 
 489   0.0000       2.954366        80.3924 
 490   0.0000       2.959991        80.5455 
 491   0.0000       2.966148        80.7130 
 492   0.0000       2.971395        80.8558 
 493   0.0000       2.974610        80.9433 
 494   0.0000       2.984759        81.2194 
 495   0.0000       2.996987        81.5522 
 496   0.0000       3.002932        81.7139 
 497   0.0000       3.012423        81.9722 
 498   0.0000       3.018343        82.1333 
 499   0.0000       3.026612        82.3583 
 500   0.0000       3.030012        82.4508 
 501   0.0000       3.036100        82.6165 
 502   0.0000       3.041699        82.7688 
 503   0.0000       3.048537        82.9549 
 504   0.0000       3.049820        82.9898 
 505   0.0000       3.056081        83.1602 
 506   0.0000       3.057641        83.2027 
 507   0.0000       3.070972        83.5654 
 508   0.0000       3.078425        83.7682 
 509   0.0000       3.088924        84.0539 
 510   0.0000       3.095084        84.2215 
 511   0.0000       3.105723        84.5110 
 512   0.0000       3.120735        84.9195 
 513   0.0000       3.125273        85.0430 
 514   0.0000       3.131373        85.2090 
 515   0.0000       3.142564        85.5135 
 516   0.0000       3.146575        85.6227 
 517   0.0000       3.156948        85.9049 
 518   0.0000       3.160666        86.0061 
 519   0.0000       3.170517        86.2742 
 520   0.0000       3.174176        86.3737 
 521   0.0000       3.178450        86.4900 
 522   0.0000       3.182386        86.5971 
 523   0.0000       3.187690        86.7414 
 524   0.0000       3.198304        87.0303 
 525   0.0000       3.204898        87.2097 
 526   0.0000       3.208121        87.2974 
 527   0.0000       3.209161        87.3257 
 528   0.0000       3.217279        87.5466 
[...]
sum of PNO error estimates for the kept pairs         ...      -0.011727706509 Eh
                                                          --------------------
sum of all corrections                                         -0.028398896047
Initial total correlation energy                               -3.746676723055
Thresholds for map construction and integral transformation for fine MP2 and CCSD(T) calculation:
   TCutMKN   ...     1.0e-03
   TCutDO    ...     1.0e-02
   TCutPairs ...     1.0e-04
   TCutCMO   ...     1.0e-03
   TCutCPAO  ...     1.0e-03

Thresholds for map construction and integral transformation for strong Triples:
   TCutMKN   ...     1.0e-02
   TCutDO    ...     2.0e-02
   TCutCMO   ...     1.0e-03
   TCutCPAO  ...     1.0e-03

Thresholds for map construction and integral transformation for weak Triples:
   TCutMKN   ...     1.0e-01
   TCutDO    ...     4.0e-02
   TCutCMO   ...     1.0e-03
   TCutCPAO  ...     1.0e-03

--------------------------------
LOCAL RI TRANSFORMATION (IAVPAO)
--------------------------------

Orbital window:      22 to 80
Number of PAOs:     948
Basis functions:    948 (356 shells)
Aux. functions:    2242 (674 shells)
Use SHARK:           on

Processing maps (0.0 sec)
Average map sizes:
   Aux shells -> MOs              46.2
   Aux shells -> PAOs            948.0
   MOs        -> AO shells       287.1
   PAOs       -> AO shells       335.4

Calculating integrals (5.3 sec, 751.326 MB)
Sorting integrals (0.8 sec, 742.987 MB)
Total time for the integral transformation: 6.2 sec
--------------------------------
INITIAL GUESS AND PNO GENERATION
--------------------------------

PNO truncation parameters                   .... 
    PAOOverlapThresh   =        1.000e-08

    TCutPairs          =        1.000e-04
    TCutPNO            =        3.330e-07
    TCutPNOSingles     =        9.990e-09
    TCutMP2Pairs       =        1.000e-05
    TCutMKN            =        1.000e-03
    TCutDO             =        1.000e-02

Pair selection                          .... not used
Type of local MP2 treatment                 .... semi-local MP2
Strategy for PNO selection                  .... occupation number selection
Pair density normalization                  .... MP2 norm
Spin component scaling                      .... not used

   .... Finished loop over pairs

 PNO Occupation Number Statistics: 
  | Av. % of trace(Dij) retained        ...  97.436785164515
  | sigma^2 in % of trace(Dij) retained ...   6.74e+00
  | Av. % of trace(Di) retained         ...  99.998955318641
  | sigma^2 in % of trace(Di) retained  ...   1.58e-07
 Distributions of % trace(Dij) recovered:
  |       >= 99.9  ...   174 ( 16.9 % of all pairs)
  |   [70.0, 80.0) ...     1 (  0.1 % of all pairs)
  |   [80.0, 90.0) ...    12 (  1.2 % of all pairs)
  |   [90.0, 99.0) ...   616 ( 60.0 % of all pairs)
  |   [99.0, 99.9) ...   224 ( 21.8 % of all pairs)
 Distributions of % trace(Di) recovered :
  |       >= 99.9  ...    59 (100.0 % of all I-pairs )

Making pair pair interaction lists          ... done

                       ===========================
                        630 OF 1027 PAIRS ARE KEPT
                       ===========================

Total time spent in the initial guess                 ...    44.547 sec
SL-MP2 correlation energy (all non-screened pairs)    ...      -3.747891231874 Eh

Initial PNO correlation energy                        ...      -3.720982443859 Eh
sum of pair energies estimated for screened out pairs ...      -0.001604629746 Eh
sum of MP2 pair energies for pairs that were not kept ...      -0.015085367720 Eh
sum of PNO error estimates for the kept pairs         ...      -0.011823420295 Eh
                                                          --------------------
sum of all corrections                                         -0.028513417760
Initial total correlation energy                               -3.749495861620
Thresholds for map construction and integral transformation for fine MP2 and CCSD(T) calculation:
   TCutMKN   ...     1.0e-03
   TCutDO    ...     1.0e-02
   TCutPairs ...     1.0e-04
   TCutCMO   ...     1.0e-03
   TCutCPAO  ...     1.0e-03

Time for aux screen maps:            0.007
Time for maps after fine MP2:            0.043
-----------------------------
LOCAL RI TRANSFORMATION (IJV)
-----------------------------

Orbital window:      22 to 80
Basis functions:    948 (356 shells)
Aux. functions:    2242 (674 shells)
Use SHARK:           on

Processing maps (0.0 sec)
Average map sizes:
   Aux shells -> MOs(i)           38.6
   Aux shells -> MOs(j)           59.0
   MOs        -> AO shells       287.1

Calculating integrals (4.2 sec, 39.263 MB)
Sorting integrals (0.1 sec, 39.238 MB)
Total time for the integral transformation: 4.2 sec
--------------------------------
LOCAL RI TRANSFORMATION (VABPAO)
--------------------------------

Number of PAOs:     948
Basis functions:    948 (356 shells)
Aux. functions:    2242 (674 shells)
Use SHARK:           on

Processing maps (0.0 sec)
Average map sizes:
   Aux shells -> PAOs            844.4
   PAOs       -> AO shells       335.4

Calculating integrals (24.5 sec, 12492.405 MB)
Finished


-------------------------------------
Pair Pair Term precalculation with     
RI-(ij|mn) and (im|jn) transformation  
ON THE FLY                             
-------------------------------------

   IBatch   1 (of   7)              ... done (   32.515 sec)
   IBatch   2 (of   7)              ... done (   30.562 sec)
   IBatch   3 (of   7)              ... done (   41.392 sec)
   IBatch   4 (of   7)              ... done (   40.155 sec)
   IBatch   5 (of   7)              ... done (   45.633 sec)
   IBatch   6 (of   7)              ... done (   72.398 sec)
   IBatch   7 (of   7)              ... done (   19.179 sec)
Total EXT                           ...         281.835 sec

---------------------
RI-PNO TRANSFORMATION
---------------------

Total Number of PNOs                   ... 20251
Average number of PNOs per pair        ...    32
Maximal number of PNOs per pair        ...    81
   #pairs with  1 -  5 PNOs   :    0
   #pairs with  6 - 10 PNOs   :   25
   #pairs with 11 - 15 PNOs   :   87
   #pairs with 16 - 20 PNOs   :   92
   #pairs with 21 - 25 PNOs   :   58
   #pairs with 26 - 30 PNOs   :   50
   #pairs with 31 - 35 PNOs   :   86
   #pairs with 36 - 40 PNOs   :   48
   #pairs with 41 - 45 PNOs   :   44
   #pairs with 46 - 50 PNOs   :   45
   #pairs with 51 - 55 PNOs   :   33
   #pairs with 56 - 60 PNOs   :   20
   #pairs with 61 - 65 PNOs   :    9
   #pairs with 66 - 70 PNOs   :    5
   #pairs with 71 - 75 PNOs   :   19
   #pairs with 76 - 80 PNOs   :    8
   #pairs with 81 - 85 PNOs   :    1

Generation of (ij|ab)[P] integrals            ... on
Generation of (ia|bc)[P],(ja|bc)[P] integrals ... on
Storage of 3 and 4 external integrals         ... on
Generation of ALL (ka|bc)[P] integrals        ... on
Keep RI integrals in memory                   ... off

Ibatch:  1 (of  1)
Starting 2-4 index PNO integral generation ... done

Timings:
Total PNO integral transformation time     ...        107.379 sec
Size of the 3-external file                ...       317 MB
Size of the 4-external file                ...      2230 MB
Size of the IKJL file                      ...         0 MB
Size of the all 3-external file            ...      7489 MB
Size of the 1-external file                ...        21 MB

Making pair/pair overlap matrices          ... done (   24.563 sec)
Size of the pair overlap file              ... 2032 MB
Redoing the guess amplitudes               ... done (    0.010 sec)

-------------------------
FINAL STARTUP INFORMATION
-------------------------

E(0)                                       ...  -1082.677304670
E(SL-MP2)                                  ...     -3.747891232
E(SL-MP2) including corrections            ...     -3.749495862
Initial E(tot)                             ...  -1086.426800531
<T|T>                                      ...      0.993646529
Number of pairs included                   ... 630
Total number of pairs                      ... 1770

------------------------------------------------
                  RHF COUPLED CLUSTER ITERATIONS
------------------------------------------------

Number of PNO amplitudes to be optimized   ...       833465
Number of non-PNO amplitudes               ...    473564070
Untruncated number of regular amplitudes   ...   1330489530

Iter       E(tot)           E(Corr)          Delta-E          Residual     Time
  0  -1086.426981575     -3.721163487      0.026727745      0.019798428   29.93
                           *** Turning on DIIS ***
  1  -1086.548756779     -3.842938692     -0.121775205      0.012739157   30.38
  2  -1086.636253523     -3.930435436     -0.087496744      0.003209299   30.35
  3  -1086.652221848     -3.946403760     -0.015968324      0.001966752   30.66
  4  -1086.656933423     -3.951115336     -0.004711576      0.001013862   30.73
  5  -1086.658330127     -3.952512040     -0.001396704      0.000452256   30.44
  6  -1086.658681448     -3.952863360     -0.000351320      0.000161626   30.24
  7  -1086.658737355     -3.952919268     -0.000055908      0.000091486   30.19
  8  -1086.658759934     -3.952941846     -0.000022579      0.000058407   30.17
  9  -1086.658747218     -3.952929130      0.000012716      0.000035466   30.60
 10  -1086.658751724     -3.952933636     -0.000004506      0.000016447   30.52
 11  -1086.658749841     -3.952931754      0.000001883      0.000005191   30.35
 12  -1086.658750207     -3.952932120     -0.000000366      0.000001460   30.53
 13  -1086.658749885     -3.952931797      0.000000322      0.000000588   30.43
               --- The Coupled-Cluster iterations have converged ---

----------------------
COUPLED CLUSTER ENERGY
----------------------

E(0)                                       ...  -1082.677304670
E(CORR)(strong-pairs)                      ...     -3.952931797
E(CORR)(weak-pairs)                        ...     -0.028513418
E(CORR)(corrected)                         ...     -3.981445215
E(TOT)                                     ...  -1086.658749885
Singles Norm <S|S>**1/2                    ...      0.108010792  
T1 diagnostic                              ...      0.009943199  

------------------
LARGEST AMPLITUDES
------------------
  58-> 83  58-> 83       0.052920
  61-> 81  61-> 81       0.052453
  59-> 81  59-> 81       0.052098
  60-> 81  60-> 81       0.052050
  47-> 81  47-> 81       0.050510
  33-> 81  33-> 81       0.050335
  34-> 81  34-> 81       0.049121
  80-> 81  80-> 81       0.044361
  37-> 83  37-> 83       0.044304
  65-> 81  65-> 81       0.044171
  48-> 82  48-> 82       0.044128
  35-> 83  35-> 83       0.041123
  36-> 82  36-> 82       0.040238
  44-> 81  44-> 81       0.039494
  40-> 81  40-> 81       0.038955
  72-> 85  72-> 85       0.038457


-------------------------------------------
DLPNO BASED TRIPLES CORRECTION
-------------------------------------------

Singles multiplier          ...  1.000000
TCutTNO                     ... 1.000e-09
TCutMP2Pairs                ... 1.000e-05
TCutDOStrong                ... 2.000e-02
TCutMKNStrong               ... 1.000e-02
TCutDOWeak                  ... 4.000e-02
TCutMKNWeak                 ... 1.000e-01

Fragment selection                          .... not used
Fock matrix occ-virt block is zero --> Setting DT_in_Triples to false.
Number of Triples that are to be computed   ...      6465

 . . . . . . . . .
10% done               (    128.623 sec)
 . . . . . . . . .
20% done  
30% done               (    143.376 sec)
 . . . . . . . . .
40% done  
50% done               (    157.601 sec)
 . . . . . . . . .
60% done  
70% done  
80% done  
90% done               (    217.525 sec)
 . . . . . . . . .             (     28.755 sec)
Triples timings:
Total time for T0               ...   738.294 sec
Total time for Iterative (T)    ...     0.000 sec
Total time of overall (T)       ...   772.200 sec

Triples List generation         ...     0.000 sec
TNO generation                  ...    62.339 sec
Pair density generation         ...     0.041 sec
Look up tables                  ...     0.000 sec
Generating 3-index integrals    ...   467.510 sec
  Make 4-ind.int. from 3-ind.int...    34.777 sec
  Projecting amplitudes (D + S) ...   130.570 sec
  Downprojecting integrals      ...     0.006 sec
  Energy contr. (sum over a,b,c)...     7.832 sec
Fitting ET(->0)                 ...     0.000 sec

Everything after 3-index        ...   208.370 sec

Timing details:
 TNO integrals                  ...   499.931 sec
   Reading 3-index integrals    ...    20.956 sec
   Sorting integrals            ...    60.215 sec
       Sorting integrals 1      ...     0.004 sec
       Sorting integrals 2      ...    51.101 sec
       Sorting integrals 3      ...     1.643 sec
       Sorting integrals 4      ...     0.153 sec
       Sorting integrals 5      ...     0.748 sec
       Sorting integrals 6      ...     6.565 sec
   Calculating local VM**-1/2   ...     1.778 sec
   Orthogonal. integrals        ...     3.524 sec
   Multipl. 3-index integrals   ...   413.459 sec
   All concerning IRIab (w/TNO) ...    21.243 sec

 Calculate W0/W1                ...    35.155 sec
 W 3-ext contribution           ...    20.267 sec
 W 3-int contribution           ...     7.630 sec
 Sorting W                      ...     6.622 sec

 V exchange contribution        ...     3.105 sec

 Timings for Triples without generation
     of 3-index integrals       ...   208.353 sec
       0 weak pairs             ...   150.819 sec
       1 weak pair              ...    57.534 sec
       2 weak pairs             ...     0.000 sec
       3 weak pairs             ...     0.000 sec
  Extra time for extrapolation  ...     0.000 sec

Number of Triples   (0, 1, 2, 3 weak pairs; overall):   3854    2611       0       0  (  6465)
Number of Atoms     (0, 1, 2, 3 weak pairs; overall):   16.6    14.0     0.0     0.0  (    41)
Number of PAOs      (0, 1, 2, 3 weak pairs; overall):  413.3   363.7     0.0     0.0  (   948)
Number of AuxFcns   (0, 1, 2, 3 weak pairs; overall):  480.8   370.9     0.0     0.0  (  2242)
Number of TNOs      (0, 1, 2, 3 weak pairs         ):   86.7    62.3     0.0     0.0
Aver. Number of NTNO, Atoms, PAOs, AuxFcns / Triples:   6465    76.9    15.6   393.3   436.4

Triples Correction (T)                     ...     -0.169179864
Final correlation energy                   ...     -4.150625079
E(CCSD)                                    ...  -1086.658749885
E(CCSD(T))                                 ...  -1086.827929749



--------------------------------------------------------------------------------
                                    TIMINGS
--------------------------------------------------------------------------------


Total execution time                   ...     1933.208 sec

Localization of occupied MO's          ...        2.460 sec (  0.1%)
Fock Matrix Formation                  ...      150.501 sec (  7.8%)
Global overlap, Fock, MKN matrices     ...        1.097 sec (  0.1%)
Differential overlap integrals         ...        2.965 sec (  0.2%)
Organizing maps                        ...        0.126 sec (  0.0%)
RI 3-index integral generations        ...       41.606 sec (  2.2%)
RI-PNO integral transformation         ...      459.922 sec ( 23.8%)
Initial Guess                          ...       76.239 sec (  3.9%)
DIIS Solver                            ...        1.352 sec (  0.1%)
State Vector Update                    ...        0.058 sec (  0.0%)
Sigma-vector construction              ...      424.119 sec ( 21.9%)
  <0|H|D>                              ...        0.002 sec (  0.0% of sigma)
  <D|H|D>(0-ext)                       ...       34.057 sec (  8.0% of sigma)
  <D|H|D>(2-ext Fock)                  ...        0.067 sec (  0.0% of sigma)
  <D|H|D>(2-ext)                       ...       70.910 sec ( 16.7% of sigma)
  <D|H|D>(4-ext)                       ...       25.810 sec (  6.1% of sigma)
  <D|H|D>(4-ext-corr)                  ...      141.152 sec ( 33.3% of sigma)
  CCSD doubles correction              ...        1.514 sec (  0.4% of sigma)
  <S|H|S>                              ...        4.083 sec (  1.0% of sigma)
  <S|H|D>(1-ext)                       ...        4.230 sec (  1.0% of sigma)
  <D|H|S>(1-ext)                       ...        0.060 sec (  0.0% of sigma)
  <S|H|D>(3-ext)                       ...        0.749 sec (  0.2% of sigma)
  CCSD singles correction              ...        0.002 sec (  0.0% of sigma)
  Fock-dressing                        ...       65.438 sec ( 15.4% of sigma)
  Singles amplitudes                   ...        5.168 sec (  1.2% of sigma)
  (ik|jl)-dressing                     ...       32.243 sec (  7.6% of sigma)
  (ij|ab),(ia|jb)-dressing             ...        9.635 sec (  2.3% of sigma)
  Pair energies                        ...        0.029 sec (  0.0% of sigma)
Total Time for computing (T)           ...      772.209 sec ( 39.9% of ALL)


Maximum memory used throughout the entire MDCI-calculation: 3441.7 MB

-------------------------   --------------------
FINAL SINGLE POINT ENERGY     -1086.827929748755
-------------------------   --------------------


                            ***************************************
                            *     ORCA property calculations      *
                            ***************************************


  WARNING: The energy has been calculated at the MDCI level but the densities
           used in the property calculations are still SCF densities
           MDCI response densities have not been calculated 
           use %mdci Density linearized end
           or  %mdci Density unrelaxed end
           or  %mdci Density orbopt end

                                    ---------------------
                                    Active property flags
                                    ---------------------
   (+) Dipole Moment


------------------------------------------------------------------------------
                       ORCA ELECTRIC PROPERTIES CALCULATION
------------------------------------------------------------------------------

Dipole Moment Calculation                       ... on
Quadrupole Moment Calculation                   ... off
Polarizability Calculation                      ... off
GBWName                                         ... Fluoxetine_55.gbw
Electron density                                ... Fluoxetine_55.scfp
The origin for moment calculation is the CENTER OF MASS  = (-0.006364, -0.148618 -0.073997)

-------------
DIPOLE MOMENT
-------------
                                X             Y             Z
Electronic contribution:     48.81033      -8.64150      -0.89174
Nuclear contribution   :    -57.06415      10.58437       0.85216
                        -----------------------------------------
Total Dipole Moment    :     -8.25382       1.94286      -0.03959
                        -----------------------------------------
Magnitude (a.u.)       :      8.47950
Magnitude (Debye)      :     21.55317



--------------------
Rotational spectrum 
--------------------
 
Rotational constants in cm-1:     0.018552     0.004225     0.003865 
Rotational constants in MHz :   556.175631   126.652408   115.858285 

 Dipole components along the rotational axes: 
x,y,z [a.u.] :    -8.365439     1.348518    -0.320638 
x,y,z [Debye]:   -21.263256     3.427660    -0.814997 

 

Timings for individual modules:

Sum of individual times         ...     3218.250 sec (=  53.638 min)
GTO integral calculation        ...        2.639 sec (=   0.044 min)   0.1 %
SCF iterations                  ...     1280.689 sec (=  21.345 min)  39.8 %
MDCI module                     ...     1934.923 sec (=  32.249 min)  60.1 %
                             ****ORCA TERMINATED NORMALLY****
TOTAL RUN TIME: 0 days 0 hours 53 minutes 40 seconds 182 msec
