
Lmod is automatically replacing "intel/2020.1.217" with "gcc/10.3.0".


Due to MODULEPATH changes, the following have been reloaded:
  1) blis/0.8.1     2) flexiblas/3.0.4

The following have been reloaded with a version change:
  1) gcccore/.9.3.0 => gcccore/.10.3.0        3) openmpi/4.0.3 => openmpi/4.1.1
  2) libfabric/1.10.1 => libfabric/1.12.1     4) ucx/1.8.0 => ucx/1.9.0

To execute ORCA, run: 
   ${EBROOTORCA}/orca orca.inp > orca.out

                                 *****************
                                 * O   R   C   A *
                                 *****************

                                            #,                                       
                                            ###                                      
                                            ####                                     
                                            #####                                    
                                            ######                                   
                                           ########,                                 
                                     ,,################,,,,,                         
                               ,,#################################,,                 
                          ,,##########################################,,             
                       ,#########################################, ''#####,          
                    ,#############################################,,   '####,        
                  ,##################################################,,,,####,       
                ,###########''''           ''''###############################       
              ,#####''   ,,,,##########,,,,          '''####'''          '####       
            ,##' ,,,,###########################,,,                        '##       
           ' ,,###''''                  '''############,,,                           
         ,,##''                                '''############,,,,        ,,,,,,###''
      ,#''                                            '''#######################'''  
     '                                                          ''''####''''         
             ,#######,   #######,   ,#######,      ##                                
            ,#'     '#,  ##    ##  ,#'     '#,    #''#        ######   ,####,        
            ##       ##  ##   ,#'  ##            #'  '#       #        #'  '#        
            ##       ##  #######   ##           ,######,      #####,   #    #        
            '#,     ,#'  ##    ##  '#,     ,#' ,#      #,         ##   #,  ,#        
             '#######'   ##     ##  '#######'  #'      '#     #####' # '####'        



                  #######################################################
                  #                        -***-                        #
                  #          Department of theory and spectroscopy      #
                  #    Directorship and core code : Frank Neese         #
                  #        Max Planck Institute fuer Kohlenforschung    #
                  #                Kaiser Wilhelm Platz 1               #
                  #                 D-45470 Muelheim/Ruhr               #
                  #                      Germany                        #
                  #                                                     #
                  #                  All rights reserved                #
                  #                        -***-                        #
                  #######################################################


                         Program Version 5.0.3 -  RELEASE  -


 With contributions from (in alphabetic order):
   Daniel Aravena         : Magnetic Suceptibility
   Michael Atanasov       : Ab Initio Ligand Field Theory (pilot matlab implementation)
   Alexander A. Auer      : GIAO ZORA, VPT2 properties, NMR spectrum
   Ute Becker             : Parallelization
   Giovanni Bistoni       : ED, misc. LED, open-shell LED, HFLD
   Martin Brehm           : Molecular dynamics
   Dmytro Bykov           : SCF Hessian
   Vijay G. Chilkuri      : MRCI spin determinant printing, contributions to CSF-ICE
   Dipayan Datta          : RHF DLPNO-CCSD density
   Achintya Kumar Dutta   : EOM-CC, STEOM-CC
   Dmitry Ganyushin       : Spin-Orbit,Spin-Spin,Magnetic field MRCI
   Miquel Garcia          : C-PCM and meta-GGA Hessian, CC/C-PCM, Gaussian charge scheme
   Yang Guo               : DLPNO-NEVPT2, F12-NEVPT2, CIM, IAO-localization
   Andreas Hansen         : Spin unrestricted coupled pair/coupled cluster methods
   Benjamin Helmich-Paris : MC-RPA, TRAH-SCF, COSX integrals
   Lee Huntington         : MR-EOM, pCC
   Robert Izsak           : Overlap fitted RIJCOSX, COSX-SCS-MP3, EOM
   Marcus Kettner         : VPT2
   Christian Kollmar      : KDIIS, OOCD, Brueckner-CCSD(T), CCSD density, CASPT2, CASPT2-K
   Simone Kossmann        : Meta GGA functionals, TD-DFT gradient, OOMP2, MP2 Hessian
   Martin Krupicka        : Initial AUTO-CI
   Lucas Lang             : DCDCAS
   Marvin Lechner         : AUTO-CI (C++ implementation), FIC-MRCC
   Dagmar Lenk            : GEPOL surface, SMD
   Dimitrios Liakos       : Extrapolation schemes; Compound Job, initial MDCI parallelization
   Dimitrios Manganas     : Further ROCIS development; embedding schemes
   Dimitrios Pantazis     : SARC Basis sets
   Anastasios Papadopoulos: AUTO-CI, single reference methods and gradients
   Taras Petrenko         : DFT Hessian,TD-DFT gradient, ASA, ECA, R-Raman, ABS, FL, XAS/XES, NRVS
   Peter Pinski           : DLPNO-MP2, DLPNO-MP2 Gradient
   Christoph Reimann      : Effective Core Potentials
   Marius Retegan         : Local ZFS, SOC
   Christoph Riplinger    : Optimizer, TS searches, QM/MM, DLPNO-CCSD(T), (RO)-DLPNO pert. Triples
   Tobias Risthaus        : Range-separated hybrids, TD-DFT gradient, RPA, STAB
   Michael Roemelt        : Original ROCIS implementation
   Masaaki Saitow         : Open-shell DLPNO-CCSD energy and density
   Barbara Sandhoefer     : DKH picture change effects
   Avijit Sen             : IP-ROCIS
   Kantharuban Sivalingam : CASSCF convergence, NEVPT2, FIC-MRCI
   Bernardo de Souza      : ESD, SOC TD-DFT
   Georgi Stoychev        : AutoAux, RI-MP2 NMR, DLPNO-MP2 response
   Willem Van den Heuvel  : Paramagnetic NMR
   Boris Wezisla          : Elementary symmetry handling
   Frank Wennmohs         : Technical directorship


 We gratefully acknowledge several colleagues who have allowed us to
 interface, adapt or use parts of their codes:
   Stefan Grimme, W. Hujo, H. Kruse, P. Pracht,  : VdW corrections, initial TS optimization,
                  C. Bannwarth, S. Ehlert          DFT functionals, gCP, sTDA/sTD-DF
   Ed Valeev, F. Pavosevic, A. Kumar             : LibInt (2-el integral package), F12 methods
   Garnet Chan, S. Sharma, J. Yang, R. Olivares  : DMRG
   Ulf Ekstrom                                   : XCFun DFT Library
   Mihaly Kallay                                 : mrcc  (arbitrary order and MRCC methods)
   Jiri Pittner, Ondrej Demel                    : Mk-CCSD
   Frank Weinhold                                : gennbo (NPA and NBO analysis)
   Christopher J. Cramer and Donald G. Truhlar   : smd solvation model
   Lars Goerigk                                  : TD-DFT with DH, B97 family of functionals
   V. Asgeirsson, H. Jonsson                     : NEB implementation
   FAccTs GmbH                                   : IRC, NEB, NEB-TS, DLPNO-Multilevel, CI-OPT
                                                   MM, QMMM, 2- and 3-layer-ONIOM, Crystal-QMMM,
                                                   LR-CPCM, SF, NACMEs, symmetry and pop. for TD-DFT,
                                                   nearIR, NL-DFT gradient (VV10), updates on ESD,
                                                   ML-optimized integration grids
   S Lehtola, MJT Oliveira, MAL Marques          : LibXC Library
   Liviu Ungur et al                             : ANISO software


 Your calculation uses the libint2 library for the computation of 2-el integrals
 For citations please refer to: http://libint.valeyev.net

 Your ORCA version has been built with support for libXC version: 5.1.0
 For citations please refer to: https://tddft.org/programs/libxc/

 This ORCA versions uses:
   CBLAS   interface :  Fast vector & matrix operations
   LAPACKE interface :  Fast linear algebra routines
   SCALAPACK package :  Parallel linear algebra routines
   Shared memory     :  Shared parallel matrices
   BLAS/LAPACK       :  OpenBLAS 0.3.15  USE64BITINT DYNAMIC_ARCH NO_AFFINITY Zen SINGLE_THREADED
        Core in use  :  Zen
   Copyright (c) 2011-2014, The OpenBLAS Project


================================================================================

----- Orbital basis set information -----
Your calculation utilizes the basis: def2-TZVPP
   F. Weigend and R. Ahlrichs, Phys. Chem. Chem. Phys. 7, 3297 (2005).

----- AuxC basis set information -----
Your calculation utilizes the auxiliary basis: def2-TZVPP/C
  H-La, Hf-Rn : A. Hellweg, C. Hattig, S. Hofener and W. Klopper, Theor. Chem. Acc. 117, 587 (2007).
        Ce-Lu : J. Chmela and M. E. Harding, Mol. Phys. (2018).

================================================================================
                                        WARNINGS
                       Please study these warnings very carefully!
================================================================================


WARNING: Post HF methods need fully converged wavefunctions
  ===> : Setting SCFConvForced true
         You can overwrite this default with %scf ConvForced false 


WARNING: MDCI localization with Augmented Hessian Foster-Boys
  ===> : Switching off randomization!

INFO   : the flag for use of the SHARK integral package has been found!

================================================================================
                                       INPUT FILE
================================================================================
NAME = Fluoxetine_35.inp
|  1> ! DLPNO-CCSD(T) def2-TZVPP def2-TZVPP/C VeryTightSCF
|  2> %maxcore 3400
|  3> 
|  4> %pal nprocs 8 
|  5> end
|  6> 
|  7> *xyz 1 1
|  8>  C       -2.107658        4.420078        0.926508
|  9>  N       -1.950842        3.051539        0.374685
| 10>  C       -3.202010        2.461800       -0.204178
| 11>  C       -2.982758        1.041733       -0.702375
| 12>  C       -2.660588        0.044621        0.412258
| 13>  C       -2.532197       -1.404740       -0.008036
| 14>  C       -2.063354       -2.322517        0.928066
| 15>  C       -1.941419       -3.660586        0.598460
| 16>  C       -2.296608       -4.101471       -0.668735
| 17>  C       -2.775491       -3.196794       -1.600622
| 18>  C       -2.892168       -1.852954       -1.272680
| 19>  O       -1.536480        0.500648        1.195413
| 20>  C       -0.236926        0.442427        0.744523
| 21>  C        0.699171        0.941672        1.644037
| 22>  C        2.037481        0.988630        1.298944
| 23>  C        2.447382        0.535354        0.054791
| 24>  C        1.512917        0.030587       -0.834665
| 25>  C        0.168005       -0.018806       -0.502840
| 26>  C        3.895405        0.600391       -0.359926
| 27>  F        4.302113       -0.554878       -0.897334
| 28>  F        4.085898        1.554214       -1.286468
| 29>  F        4.698202        0.877987        0.670269
| 30>  H       -2.445765        5.086230        0.136911
| 31>  H       -1.150196        4.757191        1.314423
| 32>  H       -2.842200        4.391335        1.726883
| 33>  H       -1.632137        2.386564        1.092325
| 34>  H       -3.524537        3.119833       -1.009787
| 35>  H       -3.950708        2.496919        0.587948
| 36>  H       -2.221020        1.031284       -1.485026
| 37>  H       -3.915044        0.734907       -1.177119
| 38>  H       -3.469256        0.104947        1.145910
| 39>  H       -1.782432       -1.985781        1.918389
| 40>  H       -1.570560       -4.362600        1.333561
| 41>  H       -2.202187       -5.148040       -0.926317
| 42>  H       -3.059178       -3.532784       -2.589271
| 43>  H       -3.264394       -1.168974       -2.024696
| 44>  H        0.369832        1.260242        2.625313
| 45>  H        2.762988        1.366683        2.005773
| 46>  H        1.832485       -0.341106       -1.799585
| 47>  H       -0.530084       -0.453048       -1.200872
| 48>  H       -1.217700        3.043754       -0.333903
| 49> *
| 50> 
| 51> 
| 52>                          ****END OF INPUT****
================================================================================

                       ****************************
                       * Single Point Calculation *
                       ****************************

---------------------------------
CARTESIAN COORDINATES (ANGSTROEM)
---------------------------------
  C     -2.107658    4.420078    0.926508
  N     -1.950842    3.051539    0.374685
  C     -3.202010    2.461800   -0.204178
  C     -2.982758    1.041733   -0.702375
  C     -2.660588    0.044621    0.412258
  C     -2.532197   -1.404740   -0.008036
  C     -2.063354   -2.322517    0.928066
  C     -1.941419   -3.660586    0.598460
  C     -2.296608   -4.101471   -0.668735
  C     -2.775491   -3.196794   -1.600622
  C     -2.892168   -1.852954   -1.272680
  O     -1.536480    0.500648    1.195413
  C     -0.236926    0.442427    0.744523
  C      0.699171    0.941672    1.644037
  C      2.037481    0.988630    1.298944
  C      2.447382    0.535354    0.054791
  C      1.512917    0.030587   -0.834665
  C      0.168005   -0.018806   -0.502840
  C      3.895405    0.600391   -0.359926
  F      4.302113   -0.554878   -0.897334
  F      4.085898    1.554214   -1.286468
  F      4.698202    0.877987    0.670269
  H     -2.445765    5.086230    0.136911
  H     -1.150196    4.757191    1.314423
  H     -2.842200    4.391335    1.726883
  H     -1.632137    2.386564    1.092325
  H     -3.524537    3.119833   -1.009787
  H     -3.950708    2.496919    0.587948
  H     -2.221020    1.031284   -1.485026
  H     -3.915044    0.734907   -1.177119
  H     -3.469256    0.104947    1.145910
  H     -1.782432   -1.985781    1.918389
  H     -1.570560   -4.362600    1.333561
  H     -2.202187   -5.148040   -0.926317
  H     -3.059178   -3.532784   -2.589271
  H     -3.264394   -1.168974   -2.024696
  H      0.369832    1.260242    2.625313
  H      2.762988    1.366683    2.005773
  H      1.832485   -0.341106   -1.799585
  H     -0.530084   -0.453048   -1.200872
  H     -1.217700    3.043754   -0.333903

----------------------------
CARTESIAN COORDINATES (A.U.)
----------------------------
  NO LB      ZA    FRAG     MASS         X           Y           Z
   0 C     6.0000    0    12.011   -3.982896    8.352737    1.750846
   1 N     7.0000    0    14.007   -3.686557    5.766573    0.708052
   2 C     6.0000    0    12.011   -6.050922    4.652128   -0.385841
   3 C     6.0000    0    12.011   -5.636596    1.968590   -1.327296
   4 C     6.0000    0    12.011   -5.027783    0.084321    0.779055
   5 C     6.0000    0    12.011   -4.785159   -2.654574   -0.015186
   6 C     6.0000    0    12.011   -3.899174   -4.388921    1.753791
   7 C     6.0000    0    12.011   -3.668750   -6.917505    1.130926
   8 C     6.0000    0    12.011   -4.339960   -7.750657   -1.263726
   9 C     6.0000    0    12.011   -5.244918   -6.041065   -3.024737
  10 C     6.0000    0    12.011   -5.465405   -3.501576   -2.405017
  11 O     8.0000    0    15.999   -2.903526    0.946088    2.259003
  12 C     6.0000    0    12.011   -0.447725    0.836066    1.406945
  13 C     6.0000    0    12.011    1.321242    1.779502    3.106780
  14 C     6.0000    0    12.011    3.850281    1.868240    2.454648
  15 C     6.0000    0    12.011    4.624882    1.011672    0.103540
  16 C     6.0000    0    12.011    2.858999    0.057801   -1.577288
  17 C     6.0000    0    12.011    0.317483   -0.035538   -0.950230
  18 C     6.0000    0    12.011    7.361249    1.134575   -0.680162
  19 F     9.0000    0    18.998    8.129815   -1.048567   -1.695716
  20 F     9.0000    0    18.998    7.721228    2.937039   -2.431072
  21 F     9.0000    0    18.998    8.878315    1.659155    1.266625
  22 H     1.0000    0     1.008   -4.621826    9.611582    0.258724
  23 H     1.0000    0     1.008   -2.173555    8.989788    2.483899
  24 H     1.0000    0     1.008   -5.370980    8.298421    3.263336
  25 H     1.0000    0     1.008   -3.084292    4.509952    2.064195
  26 H     1.0000    0     1.008   -6.660410    5.895630   -1.908221
  27 H     1.0000    0     1.008   -7.465756    4.718493    1.111061
  28 H     1.0000    0     1.008   -4.197120    1.948844   -2.806292
  29 H     1.0000    0     1.008   -7.398361    1.388773   -2.224433
  30 H     1.0000    0     1.008   -6.555944    0.198321    2.165456
  31 H     1.0000    0     1.008   -3.368308   -3.752582    3.625230
  32 H     1.0000    0     1.008   -2.967928   -8.244119    2.520065
  33 H     1.0000    0     1.008   -4.161530   -9.728386   -1.750485
  34 H     1.0000    0     1.008   -5.781009   -6.675994   -4.893013
  35 H     1.0000    0     1.008   -6.168811   -2.209041   -3.826121
  36 H     1.0000    0     1.008    0.698881    2.381512    4.961123
  37 H     1.0000    0     1.008    5.221291    2.582657    3.790362
  38 H     1.0000    0     1.008    3.462895   -0.644597   -3.400723
  39 H     1.0000    0     1.008   -1.001714   -0.856137   -2.269319
  40 H     1.0000    0     1.008   -2.301120    5.751861   -0.630985

--------------------------------
INTERNAL COORDINATES (ANGSTROEM)
--------------------------------
 C      0   0   0     0.000000000000     0.00000000     0.00000000
 N      1   0   0     1.483913365297     0.00000000     0.00000000
 C      2   1   0     1.499431834101   114.71536561     0.00000000
 C      3   2   1     1.520809644499   111.92688706   182.16841332
 C      4   3   2     1.529847238823   113.59572203    65.67814166
 C      5   4   3     1.514522566236   116.06507682   175.66162843
 C      6   5   4     1.392269849843   118.21589260   171.41834570
 C      7   6   5     1.383451086313   120.46837981   179.30480728
 C      8   7   6     1.387920018218   120.14619840   359.49263231
 C      9   8   7     1.384262541134   119.70755924   359.89356723
 C     10   9   8     1.388187819891   120.17928587     0.41128122
 O      5   4   3     1.443922149708   110.68767046   305.82197261
 C     12   5   4     1.376783234884   122.94664911   285.09156124
 C     13  12   5     1.390916460335   114.09709119   179.47516076
 C     14  13  12     1.382883902760   120.14034980   182.36429873
 C     15  14  13     1.386143805449   119.93790027   359.90127812
 C     16  15  14     1.385332644692   119.73316789   359.66691872
 C     17  16  15     1.386122572797   120.91525007     0.51279996
 C     16  15  14     1.507644059447   121.11858837   178.72917157
 F     19  16  15     1.337484660880   111.42757450   133.07042788
 F     19  16  15     1.343333903444   110.88892303   252.19630005
 F     19  16  15     1.335231927588   111.97482023    12.15880450
 H      1   2   3     1.086985856836   109.14352333   300.53951515
 H      1   2   3     1.086672307293   109.01051209   180.28063789
 H      1   2   3     1.086728232098   108.71851087    60.45373374
 H      2   1   3     1.028966373236   111.67766037   239.53732038
 H      3   2   1     1.089053238230   107.16052863    59.78299204
 H      3   2   1     1.090525395963   106.24766105   304.13245871
 H      4   3   2     1.092198036093   110.13445013   299.59166053
 H      4   3   2     1.090266593824   106.38836475   184.72436281
 H      5   4   3     1.093539399201   107.28492082    55.40276429
 H      7   6   5     1.083073380759   119.81317829   358.68484867
 H      8   7   6     1.082004405850   119.72723578   179.66203348
 H      9   8   7     1.081929056697   120.15301833   180.05861205
 H     10   9   8     1.082032550005   120.18971962   180.29494536
 H     11  10   9     1.082547412233   118.45263699   179.64535458
 H     14  13  12     1.082983661002   119.13641556     4.38321968
 H     15  14  13     1.081152955460   119.87748529   180.72002088
 H     17  16  15     1.082289240117   119.89335286   181.14063365
 H     18  17  16     1.078491093848   119.17281422   182.39611452
 H      2   1   3     1.019634616975   109.96551846   123.51665492

---------------------------
INTERNAL COORDINATES (A.U.)
---------------------------
 C      0   0   0     0.000000000000     0.00000000     0.00000000
 N      1   0   0     2.804189866876     0.00000000     0.00000000
 C      2   1   0     2.833515522933   114.71536561     0.00000000
 C      3   2   1     2.873913729930   111.92688706   182.16841332
 C      4   3   2     2.890992308110   113.59572203    65.67814166
 C      5   4   3     2.862032873830   116.06507682   175.66162843
 C      6   5   4     2.631008720719   118.21589260   171.41834570
 C      7   6   5     2.614343672808   120.46837981   179.30480728
 C      8   7   6     2.622788730220   120.14619840   359.49263231
 C      9   8   7     2.615877100189   119.70755924   359.89356723
 C     10   9   8     2.623294802039   120.17928587     0.41128122
 O      5   4   3     2.728617421651   110.68767046   305.82197261
 C     12   5   4     2.601743259704   122.94664911   285.09156124
 C     13  12   5     2.628451185196   114.09709119   179.47516076
 C     14  13  12     2.613271851225   120.14034980   182.36429873
 C     15  14  13     2.619432174531   119.93790027   359.90127812
 C     16  15  14     2.617899302849   119.73316789   359.66691872
 C     17  16  15     2.619392050633   120.91525007     0.51279996
 C     16  15  14     2.849034379789   121.11858837   178.72917157
 F     19  16  15     2.527479717384   111.42757450   133.07042788
 F     19  16  15     2.538533183921   110.88892303   252.19630005
 F     19  16  15     2.523222668409   111.97482023    12.15880450
 H      1   2   3     2.054105580866   109.14352333   300.53951515
 H      1   2   3     2.053513058101   109.01051209   180.28063789
 H      1   2   3     2.053618740665   108.71851087    60.45373374
 H      2   1   3     1.944464646430   111.67766037   239.53732038
 H      3   2   1     2.058012365515   107.16052863    59.78299204
 H      3   2   1     2.060794340457   106.24766105   304.13245871
 H      4   3   2     2.063955172223   110.13445013   299.59166053
 H      4   3   2     2.060305275290   106.38836475   184.72436281
 H      5   4   3     2.066489981142   107.28492082    55.40276429
 H      7   6   5     2.046712072575   119.81317829   358.68484867
 H      8   7   6     2.044692002752   119.72723578   179.66203348
 H      9   8   7     2.044549613490   120.15301833   180.05861205
 H     10   9   8     2.044745187498   120.18971962   180.29494536
 H     11  10   9     2.045718136105   118.45263699   179.64535458
 H     14  13  12     2.046542526805   119.13641556     4.38321968
 H     15  14  13     2.043082994698   119.87748529   180.72002088
 H     17  16  15     2.045230261511   119.89335286   181.14063365
 H     18  17  16     2.038052805245   119.17281422   182.39611452
 H      2   1   3     1.926830182748   109.96551846   123.51665492

---------------------
BASIS SET INFORMATION
---------------------
There are 5 groups of distinct atoms

 Group   1 Type C   : 11s6p2d1f contracted to 5s3p2d1f pattern {62111/411/11/1}
 Group   2 Type N   : 11s6p2d1f contracted to 5s3p2d1f pattern {62111/411/11/1}
 Group   3 Type O   : 11s6p2d1f contracted to 5s3p2d1f pattern {62111/411/11/1}
 Group   4 Type F   : 11s6p2d1f contracted to 5s3p2d1f pattern {62111/411/11/1}
 Group   5 Type H   : 5s2p1d contracted to 3s2p1d pattern {311/11/1}

Atom   0C    basis set group =>   1
Atom   1N    basis set group =>   2
Atom   2C    basis set group =>   1
Atom   3C    basis set group =>   1
Atom   4C    basis set group =>   1
Atom   5C    basis set group =>   1
Atom   6C    basis set group =>   1
Atom   7C    basis set group =>   1
Atom   8C    basis set group =>   1
Atom   9C    basis set group =>   1
Atom  10C    basis set group =>   1
Atom  11O    basis set group =>   3
Atom  12C    basis set group =>   1
Atom  13C    basis set group =>   1
Atom  14C    basis set group =>   1
Atom  15C    basis set group =>   1
Atom  16C    basis set group =>   1
Atom  17C    basis set group =>   1
Atom  18C    basis set group =>   1
Atom  19F    basis set group =>   4
Atom  20F    basis set group =>   4
Atom  21F    basis set group =>   4
Atom  22H    basis set group =>   5
Atom  23H    basis set group =>   5
Atom  24H    basis set group =>   5
Atom  25H    basis set group =>   5
Atom  26H    basis set group =>   5
Atom  27H    basis set group =>   5
Atom  28H    basis set group =>   5
Atom  29H    basis set group =>   5
Atom  30H    basis set group =>   5
Atom  31H    basis set group =>   5
Atom  32H    basis set group =>   5
Atom  33H    basis set group =>   5
Atom  34H    basis set group =>   5
Atom  35H    basis set group =>   5
Atom  36H    basis set group =>   5
Atom  37H    basis set group =>   5
Atom  38H    basis set group =>   5
Atom  39H    basis set group =>   5
Atom  40H    basis set group =>   5
---------------------------------
AUXILIARY/C BASIS SET INFORMATION
---------------------------------
There are 5 groups of distinct atoms

 Group   1 Type C   : 8s6p5d3f1g contracted to 8s6p4d3f1g pattern {11111111/111111/2111/111/1}
 Group   2 Type N   : 8s6p5d3f1g contracted to 8s6p4d3f1g pattern {11111111/111111/2111/111/1}
 Group   3 Type O   : 8s6p5d3f1g contracted to 8s6p4d3f1g pattern {11111111/111111/2111/111/1}
 Group   4 Type F   : 8s6p5d3f1g contracted to 8s6p4d3f1g pattern {11111111/111111/2111/111/1}
 Group   5 Type H   : 4s3p2d1f contracted to 4s3p2d1f pattern {1111/111/11/1}

Atom   0C    basis set group =>   1
Atom   1N    basis set group =>   2
Atom   2C    basis set group =>   1
Atom   3C    basis set group =>   1
Atom   4C    basis set group =>   1
Atom   5C    basis set group =>   1
Atom   6C    basis set group =>   1
Atom   7C    basis set group =>   1
Atom   8C    basis set group =>   1
Atom   9C    basis set group =>   1
Atom  10C    basis set group =>   1
Atom  11O    basis set group =>   3
Atom  12C    basis set group =>   1
Atom  13C    basis set group =>   1
Atom  14C    basis set group =>   1
Atom  15C    basis set group =>   1
Atom  16C    basis set group =>   1
Atom  17C    basis set group =>   1
Atom  18C    basis set group =>   1
Atom  19F    basis set group =>   4
Atom  20F    basis set group =>   4
Atom  21F    basis set group =>   4
Atom  22H    basis set group =>   5
Atom  23H    basis set group =>   5
Atom  24H    basis set group =>   5
Atom  25H    basis set group =>   5
Atom  26H    basis set group =>   5
Atom  27H    basis set group =>   5
Atom  28H    basis set group =>   5
Atom  29H    basis set group =>   5
Atom  30H    basis set group =>   5
Atom  31H    basis set group =>   5
Atom  32H    basis set group =>   5
Atom  33H    basis set group =>   5
Atom  34H    basis set group =>   5
Atom  35H    basis set group =>   5
Atom  36H    basis set group =>   5
Atom  37H    basis set group =>   5
Atom  38H    basis set group =>   5
Atom  39H    basis set group =>   5
Atom  40H    basis set group =>   5


           ************************************************************
           *        Program running with 8 parallel MPI-processes     *
           *              working on a common directory               *
           ************************************************************
------------------------------------------------------------------------------
                           ORCA GTO INTEGRAL CALCULATION
------------------------------------------------------------------------------
------------------------------------------------------------------------------
                   ___                                                        
                  /   \      - P O W E R E D   B Y -                         
                 /     \                                                     
                 |  |  |   _    _      __       _____    __    __             
                 |  |  |  | |  | |    /  \     |  _  \  |  |  /  |          
                  \  \/   | |  | |   /    \    | | | |  |  | /  /          
                 / \  \   | |__| |  /  /\  \   | |_| |  |  |/  /          
                |  |  |   |  __  | /  /__\  \  |    /   |      \           
                |  |  |   | |  | | |   __   |  |    \   |  |\   \          
                \     /   | |  | | |  |  |  |  | |\  \  |  | \   \       
                 \___/    |_|  |_| |__|  |__|  |_| \__\ |__|  \__/        
                                                                              
                      - O R C A' S   B I G   F R I E N D -                    
                                      &                                       
                       - I N T E G R A L  F E E D E R -                       
                                                                              
 v1 FN, 2020, v2 2021                                                         
------------------------------------------------------------------------------


Reading SHARK input file Fluoxetine_35.SHARKINP.tmp ... ok
----------------------
SHARK INTEGRAL PACKAGE
----------------------

Number of atoms                             ...     41
Number of basis functions                   ...    948
Number of shells                            ...    356
Maximum angular momentum                    ...      3
Integral batch strategy                     ... SHARK/LIBINT Hybrid
RI-J (if used) integral strategy            ... SPLIT-RIJ (Revised 2003 algorithm where possible)
Printlevel                                  ...      1
Contraction scheme used                     ... SEGMENTED contraction
Coulomb Range Separation                    ... NOT USED
Exchange Range Separation                   ... NOT USED
Finite Nucleus Model                        ... NOT USED
Auxiliary Coulomb fitting basis             ... NOT available
Auxiliary J/K fitting basis                 ... NOT available
Auxiliary Correlation fitting basis         ... AVAILABLE
   # of basis functions in Aux-C            ...   2242
   # of shells in Aux-C                     ...    674
   Maximum angular momentum in Aux-C        ...      4
Auxiliary 'external' fitting basis          ... NOT available
Integral threshold                          ...     1.000000e-12
Primitive cut-off                           ...     1.000000e-14
Primitive pair pre-selection threshold      ...     1.000000e-14

Calculating pre-screening integrals         ... done (  0.1 sec) Dimension = 356
Organizing shell pair data                  ... done (  0.4 sec)
Shell pair information
Total number of shell pairs                 ...     63546
Shell pairs after pre-screening             ...     46042
Total number of primitive shell pairs       ...    176069
Primitive shell pairs kept                  ...     88649
          la=0 lb=0:  10229 shell pairs
          la=1 lb=0:  13135 shell pairs
          la=1 lb=1:   4311 shell pairs
          la=2 lb=0:   7186 shell pairs
          la=2 lb=1:   4713 shell pairs
          la=2 lb=2:   1284 shell pairs
          la=3 lb=0:   2491 shell pairs
          la=3 lb=1:   1645 shell pairs
          la=3 lb=2:    878 shell pairs
          la=3 lb=3:    170 shell pairs

Calculating one electron integrals          ... done (  0.1 sec)
Calculating RI/C V-Matrix + Cholesky decomp.... done (  0.3 sec)
Calculating Nuclear repulsion               ... done (  0.0 sec) ENN=   1851.653792261014 Eh

SHARK setup successfully completed in   1.4 seconds

Maximum memory used throughout the entire GTOINT-calculation: 72.3 MB
[1696462132.452672] [nc30534:1504469:0]          mpool.c:42   UCX  WARN  object 0xbb89140 was not returned to mpool ucp_requests
[1696462132.452689] [nc30534:1504469:0]          mpool.c:42   UCX  WARN  object 0xbb89300 was not returned to mpool ucp_requests
[1696462132.452693] [nc30534:1504469:0]          mpool.c:42   UCX  WARN  object 0xbb894c0 was not returned to mpool ucp_requests
[1696462132.452695] [nc30534:1504469:0]          mpool.c:42   UCX  WARN  object 0xbb89680 was not returned to mpool ucp_requests
[1696462132.452698] [nc30534:1504469:0]          mpool.c:42   UCX  WARN  object 0xbb89840 was not returned to mpool ucp_requests
[1696462132.452700] [nc30534:1504469:0]          mpool.c:42   UCX  WARN  object 0xbb89a00 was not returned to mpool ucp_requests
[1696462132.452702] [nc30534:1504469:0]          mpool.c:42   UCX  WARN  object 0xbb89bc0 was not returned to mpool ucp_requests
[1696462132.452705] [nc30534:1504469:0]          mpool.c:42   UCX  WARN  object 0xbb89d80 was not returned to mpool ucp_requests
[1696462132.452707] [nc30534:1504469:0]          mpool.c:42   UCX  WARN  object 0xbb89f40 was not returned to mpool ucp_requests
[1696462132.452709] [nc30534:1504469:0]          mpool.c:42   UCX  WARN  object 0xbb8a100 was not returned to mpool ucp_requests
[1696462132.452714] [nc30534:1504469:0]          mpool.c:42   UCX  WARN  object 0xbb8a2c0 was not returned to mpool ucp_requests
[1696462132.452716] [nc30534:1504469:0]          mpool.c:42   UCX  WARN  object 0xbb8a480 was not returned to mpool ucp_requests
[1696462132.452720] [nc30534:1504469:0]          mpool.c:42   UCX  WARN  object 0xbb8a640 was not returned to mpool ucp_requests
[1696462132.452724] [nc30534:1504469:0]          mpool.c:42   UCX  WARN  object 0xbb8a800 was not returned to mpool ucp_requests
[1696462132.452728] [nc30534:1504469:0]          mpool.c:42   UCX  WARN  object 0xbb8a9c0 was not returned to mpool ucp_requests
[1696462132.452732] [nc30534:1504469:0]          mpool.c:42   UCX  WARN  object 0xbb8ab80 was not returned to mpool ucp_requests
[1696462132.452735] [nc30534:1504469:0]          mpool.c:42   UCX  WARN  object 0xbb8ad40 was not returned to mpool ucp_requests
[1696462132.452739] [nc30534:1504469:0]          mpool.c:42   UCX  WARN  object 0xbb8af00 was not returned to mpool ucp_requests
[1696462132.453385] [nc30534:1504474:0]          mpool.c:42   UCX  WARN  object 0xaca3ec0 was not returned to mpool ucp_requests
[1696462132.453404] [nc30534:1504474:0]          mpool.c:42   UCX  WARN  object 0xaca4080 was not returned to mpool ucp_requests
[1696462132.453409] [nc30534:1504474:0]          mpool.c:42   UCX  WARN  object 0xaca4240 was not returned to mpool ucp_requests
[1696462132.453413] [nc30534:1504474:0]          mpool.c:42   UCX  WARN  object 0xaca4400 was not returned to mpool ucp_requests
[1696462132.453418] [nc30534:1504474:0]          mpool.c:42   UCX  WARN  object 0xaca45c0 was not returned to mpool ucp_requests
[1696462132.453421] [nc30534:1504474:0]          mpool.c:42   UCX  WARN  object 0xaca4780 was not returned to mpool ucp_requests
[1696462132.453425] [nc30534:1504474:0]          mpool.c:42   UCX  WARN  object 0xaca4940 was not returned to mpool ucp_requests
[1696462132.453428] [nc30534:1504474:0]          mpool.c:42   UCX  WARN  object 0xaca4b00 was not returned to mpool ucp_requests
[1696462132.453432] [nc30534:1504474:0]          mpool.c:42   UCX  WARN  object 0xaca4cc0 was not returned to mpool ucp_requests
[1696462132.453435] [nc30534:1504474:0]          mpool.c:42   UCX  WARN  object 0xaca4e80 was not returned to mpool ucp_requests
[1696462132.453439] [nc30534:1504474:0]          mpool.c:42   UCX  WARN  object 0xaca5040 was not returned to mpool ucp_requests
[1696462132.453443] [nc30534:1504474:0]          mpool.c:42   UCX  WARN  object 0xaca5200 was not returned to mpool ucp_requests
[1696462132.453448] [nc30534:1504474:0]          mpool.c:42   UCX  WARN  object 0xaca53c0 was not returned to mpool ucp_requests
[1696462132.453451] [nc30534:1504474:0]          mpool.c:42   UCX  WARN  object 0xaca5580 was not returned to mpool ucp_requests
[1696462132.453455] [nc30534:1504474:0]          mpool.c:42   UCX  WARN  object 0xaca5740 was not returned to mpool ucp_requests
[1696462132.453458] [nc30534:1504474:0]          mpool.c:42   UCX  WARN  object 0xaca5900 was not returned to mpool ucp_requests
[1696462132.453462] [nc30534:1504474:0]          mpool.c:42   UCX  WARN  object 0xaca5ac0 was not returned to mpool ucp_requests
[1696462132.458937] [nc30534:1504473:0]          mpool.c:42   UCX  WARN  object 0xa9bb1c0 was not returned to mpool ucp_requests
[1696462132.458963] [nc30534:1504473:0]          mpool.c:42   UCX  WARN  object 0xa9bb380 was not returned to mpool ucp_requests
[1696462132.458966] [nc30534:1504473:0]          mpool.c:42   UCX  WARN  object 0xa9bb540 was not returned to mpool ucp_requests
[1696462132.458969] [nc30534:1504473:0]          mpool.c:42   UCX  WARN  object 0xa9bb700 was not returned to mpool ucp_requests
[1696462132.458972] [nc30534:1504473:0]          mpool.c:42   UCX  WARN  object 0xa9bb8c0 was not returned to mpool ucp_requests
[1696462132.458974] [nc30534:1504473:0]          mpool.c:42   UCX  WARN  object 0xa9bba80 was not returned to mpool ucp_requests
[1696462132.458977] [nc30534:1504473:0]          mpool.c:42   UCX  WARN  object 0xa9bbc40 was not returned to mpool ucp_requests
[1696462132.458979] [nc30534:1504473:0]          mpool.c:42   UCX  WARN  object 0xa9bbe00 was not returned to mpool ucp_requests
[1696462132.458982] [nc30534:1504473:0]          mpool.c:42   UCX  WARN  object 0xa9bbfc0 was not returned to mpool ucp_requests
[1696462132.458986] [nc30534:1504473:0]          mpool.c:42   UCX  WARN  object 0xa9bc180 was not returned to mpool ucp_requests
[1696462132.458989] [nc30534:1504473:0]          mpool.c:42   UCX  WARN  object 0xa9bc340 was not returned to mpool ucp_requests
[1696462132.458993] [nc30534:1504473:0]          mpool.c:42   UCX  WARN  object 0xa9bc500 was not returned to mpool ucp_requests
[1696462132.458997] [nc30534:1504473:0]          mpool.c:42   UCX  WARN  object 0xa9bc6c0 was not returned to mpool ucp_requests
[1696462132.459000] [nc30534:1504473:0]          mpool.c:42   UCX  WARN  object 0xa9bc880 was not returned to mpool ucp_requests
[1696462132.459004] [nc30534:1504473:0]          mpool.c:42   UCX  WARN  object 0xa9bca40 was not returned to mpool ucp_requests
[1696462132.459007] [nc30534:1504473:0]          mpool.c:42   UCX  WARN  object 0xa9bcc00 was not returned to mpool ucp_requests
[1696462132.459011] [nc30534:1504473:0]          mpool.c:42   UCX  WARN  object 0xa9bcdc0 was not returned to mpool ucp_requests
[1696462132.461162] [nc30534:1504472:0]          mpool.c:42   UCX  WARN  object 0xabcc2c0 was not returned to mpool ucp_requests
[1696462132.461195] [nc30534:1504472:0]          mpool.c:42   UCX  WARN  object 0xabcc480 was not returned to mpool ucp_requests
[1696462132.461198] [nc30534:1504472:0]          mpool.c:42   UCX  WARN  object 0xabcc640 was not returned to mpool ucp_requests
[1696462132.461201] [nc30534:1504472:0]          mpool.c:42   UCX  WARN  object 0xabcc800 was not returned to mpool ucp_requests
[1696462132.461204] [nc30534:1504472:0]          mpool.c:42   UCX  WARN  object 0xabcc9c0 was not returned to mpool ucp_requests
[1696462132.461206] [nc30534:1504472:0]          mpool.c:42   UCX  WARN  object 0xabccb80 was not returned to mpool ucp_requests
[1696462132.461208] [nc30534:1504472:0]          mpool.c:42   UCX  WARN  object 0xabccd40 was not returned to mpool ucp_requests
[1696462132.461211] [nc30534:1504472:0]          mpool.c:42   UCX  WARN  object 0xabccf00 was not returned to mpool ucp_requests
[1696462132.461214] [nc30534:1504472:0]          mpool.c:42   UCX  WARN  object 0xabcd0c0 was not returned to mpool ucp_requests
[1696462132.461216] [nc30534:1504472:0]          mpool.c:42   UCX  WARN  object 0xabcd280 was not returned to mpool ucp_requests
[1696462132.461219] [nc30534:1504472:0]          mpool.c:42   UCX  WARN  object 0xabcd440 was not returned to mpool ucp_requests
[1696462132.461222] [nc30534:1504472:0]          mpool.c:42   UCX  WARN  object 0xabcd600 was not returned to mpool ucp_requests
[1696462132.461224] [nc30534:1504472:0]          mpool.c:42   UCX  WARN  object 0xabcd7c0 was not returned to mpool ucp_requests
[1696462132.461227] [nc30534:1504472:0]          mpool.c:42   UCX  WARN  object 0xabcd980 was not returned to mpool ucp_requests
[1696462132.461229] [nc30534:1504472:0]          mpool.c:42   UCX  WARN  object 0xabcdb40 was not returned to mpool ucp_requests
[1696462132.461231] [nc30534:1504472:0]          mpool.c:42   UCX  WARN  object 0xabcdd00 was not returned to mpool ucp_requests
[1696462132.461234] [nc30534:1504472:0]          mpool.c:42   UCX  WARN  object 0xabcdec0 was not returned to mpool ucp_requests
[1696462132.461237] [nc30534:1504472:0]          mpool.c:42   UCX  WARN  object 0xabce080 was not returned to mpool ucp_requests
[1696462132.461239] [nc30534:1504472:0]          mpool.c:42   UCX  WARN  object 0xabce240 was not returned to mpool ucp_requests
[1696462132.462675] [nc30534:1504468:0]          mpool.c:42   UCX  WARN  object 0xa4ecf00 was not returned to mpool ucp_requests
[1696462132.462695] [nc30534:1504468:0]          mpool.c:42   UCX  WARN  object 0xa4ed0c0 was not returned to mpool ucp_requests
[1696462132.462698] [nc30534:1504468:0]          mpool.c:42   UCX  WARN  object 0xa4ed280 was not returned to mpool ucp_requests
[1696462132.462701] [nc30534:1504468:0]          mpool.c:42   UCX  WARN  object 0xa4ed440 was not returned to mpool ucp_requests
[1696462132.462704] [nc30534:1504468:0]          mpool.c:42   UCX  WARN  object 0xa4ed600 was not returned to mpool ucp_requests
[1696462132.462707] [nc30534:1504468:0]          mpool.c:42   UCX  WARN  object 0xa4ed980 was not returned to mpool ucp_requests
[1696462132.462709] [nc30534:1504468:0]          mpool.c:42   UCX  WARN  object 0xa4edb40 was not returned to mpool ucp_requests
[1696462132.462712] [nc30534:1504468:0]          mpool.c:42   UCX  WARN  object 0xa4edd00 was not returned to mpool ucp_requests
[1696462132.462714] [nc30534:1504468:0]          mpool.c:42   UCX  WARN  object 0xa4edec0 was not returned to mpool ucp_requests
[1696462132.462717] [nc30534:1504468:0]          mpool.c:42   UCX  WARN  object 0xa4ee080 was not returned to mpool ucp_requests
[1696462132.464312] [nc30534:1504470:0]          mpool.c:42   UCX  WARN  object 0xa71ca80 was not returned to mpool ucp_requests
[1696462132.464341] [nc30534:1504470:0]          mpool.c:42   UCX  WARN  object 0xa71cc40 was not returned to mpool ucp_requests
[1696462132.464344] [nc30534:1504470:0]          mpool.c:42   UCX  WARN  object 0xa71ce00 was not returned to mpool ucp_requests
[1696462132.464347] [nc30534:1504470:0]          mpool.c:42   UCX  WARN  object 0xa71cfc0 was not returned to mpool ucp_requests
[1696462132.464350] [nc30534:1504470:0]          mpool.c:42   UCX  WARN  object 0xa71d180 was not returned to mpool ucp_requests
[1696462132.464352] [nc30534:1504470:0]          mpool.c:42   UCX  WARN  object 0xa71d340 was not returned to mpool ucp_requests
[1696462132.464354] [nc30534:1504470:0]          mpool.c:42   UCX  WARN  object 0xa71d500 was not returned to mpool ucp_requests
[1696462132.464357] [nc30534:1504470:0]          mpool.c:42   UCX  WARN  object 0xa71d6c0 was not returned to mpool ucp_requests
[1696462132.464359] [nc30534:1504470:0]          mpool.c:42   UCX  WARN  object 0xa71d880 was not returned to mpool ucp_requests
[1696462132.464361] [nc30534:1504470:0]          mpool.c:42   UCX  WARN  object 0xa71da40 was not returned to mpool ucp_requests
[1696462132.464365] [nc30534:1504470:0]          mpool.c:42   UCX  WARN  object 0xa71dc00 was not returned to mpool ucp_requests
[1696462132.464367] [nc30534:1504470:0]          mpool.c:42   UCX  WARN  object 0xa71ddc0 was not returned to mpool ucp_requests
[1696462132.464369] [nc30534:1504470:0]          mpool.c:42   UCX  WARN  object 0xa71df80 was not returned to mpool ucp_requests
[1696462132.464372] [nc30534:1504470:0]          mpool.c:42   UCX  WARN  object 0xa71e140 was not returned to mpool ucp_requests
[1696462132.464375] [nc30534:1504470:0]          mpool.c:42   UCX  WARN  object 0xa71e300 was not returned to mpool ucp_requests
[1696462132.464377] [nc30534:1504470:0]          mpool.c:42   UCX  WARN  object 0xa71e4c0 was not returned to mpool ucp_requests
[1696462132.464380] [nc30534:1504470:0]          mpool.c:42   UCX  WARN  object 0xa71e680 was not returned to mpool ucp_requests
[1696462132.464382] [nc30534:1504470:0]          mpool.c:42   UCX  WARN  object 0xa71e840 was not returned to mpool ucp_requests
[1696462132.463691] [nc30534:1504471:0]          mpool.c:42   UCX  WARN  object 0xbeeca40 was not returned to mpool ucp_requests
[1696462132.463706] [nc30534:1504471:0]          mpool.c:42   UCX  WARN  object 0xbeecc00 was not returned to mpool ucp_requests
[1696462132.463709] [nc30534:1504471:0]          mpool.c:42   UCX  WARN  object 0xbeecdc0 was not returned to mpool ucp_requests
[1696462132.463712] [nc30534:1504471:0]          mpool.c:42   UCX  WARN  object 0xbeecf80 was not returned to mpool ucp_requests
[1696462132.463714] [nc30534:1504471:0]          mpool.c:42   UCX  WARN  object 0xbeed140 was not returned to mpool ucp_requests
[1696462132.463717] [nc30534:1504471:0]          mpool.c:42   UCX  WARN  object 0xbeed300 was not returned to mpool ucp_requests
[1696462132.463719] [nc30534:1504471:0]          mpool.c:42   UCX  WARN  object 0xbeed4c0 was not returned to mpool ucp_requests
[1696462132.463722] [nc30534:1504471:0]          mpool.c:42   UCX  WARN  object 0xbeed680 was not returned to mpool ucp_requests
[1696462132.463724] [nc30534:1504471:0]          mpool.c:42   UCX  WARN  object 0xbeed840 was not returned to mpool ucp_requests
[1696462132.463729] [nc30534:1504471:0]          mpool.c:42   UCX  WARN  object 0xbeeda00 was not returned to mpool ucp_requests
[1696462132.463732] [nc30534:1504471:0]          mpool.c:42   UCX  WARN  object 0xbeedbc0 was not returned to mpool ucp_requests
[1696462132.463736] [nc30534:1504471:0]          mpool.c:42   UCX  WARN  object 0xbeedd80 was not returned to mpool ucp_requests
[1696462132.463739] [nc30534:1504471:0]          mpool.c:42   UCX  WARN  object 0xbeedf40 was not returned to mpool ucp_requests
[1696462132.463934] [nc30534:1504471:0]          mpool.c:42   UCX  WARN  object 0xbeee100 was not returned to mpool ucp_requests
[1696462132.463936] [nc30534:1504471:0]          mpool.c:42   UCX  WARN  object 0xbeee2c0 was not returned to mpool ucp_requests
[1696462132.463941] [nc30534:1504471:0]          mpool.c:42   UCX  WARN  object 0xbeee480 was not returned to mpool ucp_requests
[1696462132.463945] [nc30534:1504471:0]          mpool.c:42   UCX  WARN  object 0xbeee640 was not returned to mpool ucp_requests
[1696462132.463950] [nc30534:1504471:0]          mpool.c:42   UCX  WARN  object 0xbeee800 was not returned to mpool ucp_requests
[1696462132.463955] [nc30534:1504471:0]          mpool.c:42   UCX  WARN  object 0xbeee9c0 was not returned to mpool ucp_requests


           ************************************************************
           *        Program running with 8 parallel MPI-processes     *
           *              working on a common directory               *
           ************************************************************
-------------------------------------------------------------------------------
                                 ORCA SCF
-------------------------------------------------------------------------------

------------
SCF SETTINGS
------------
Hamiltonian:
 Ab initio Hamiltonian  Method          .... Hartree-Fock(GTOs)


General Settings:
 Integral files         IntName         .... Fluoxetine_35
 Hartree-Fock type      HFTyp           .... RHF
 Total Charge           Charge          ....    1
 Multiplicity           Mult            ....    1
 Number of Electrons    NEL             ....  162
 Basis Dimension        Dim             ....  948
 Nuclear Repulsion      ENuc            ....   1851.6537922610 Eh

Convergence Acceleration:
 DIIS                   CNVDIIS         .... on
   Start iteration      DIISMaxIt       ....    12
   Startup error        DIISStart       ....  0.200000
   # of expansion vecs  DIISMaxEq       ....     5
   Bias factor          DIISBfac        ....   1.050
   Max. coefficient     DIISMaxC        ....  10.000
 Trust-Rad. Augm. Hess. CNVTRAH         .... auto
   Auto Start mean grad. ratio tolernc. ....  1.125000
   Auto Start start iteration           ....    20
   Auto Start num. interpolation iter.  ....    10
   Max. Number of Micro iterations      ....    16
   Max. Number of Macro iterations      .... Maxiter - #DIIS iter
   Number of Davidson start vectors     ....     2
   Converg. threshold I  (grad. norm)   ....   2.000e-06
   Converg. threshold II (energy diff.) ....   1.000e-09
   Grad. Scal. Fac. for Micro threshold ....   0.100
   Minimum threshold for Micro iter.    ....   0.010
   NR start threshold (gradient norm)   ....   0.001
   Initial trust radius                 ....   0.400
   Minimum AH scaling param. (alpha)    ....   1.000
   Maximum AH scaling param. (alpha)    .... 1000.000
   Orbital update algorithm             .... Taylor
   White noise on init. David. guess    .... on
   Maximum white noise                  ....   0.010
   Quad. conv. algorithm                .... NR
 SOSCF                  CNVSOSCF        .... on
   Start iteration      SOSCFMaxIt      ....   150
   Startup grad/error   SOSCFStart      ....  0.003300
 Level Shifting         CNVShift        .... on
   Level shift para.    LevelShift      ....    0.2500
   Turn off err/grad.   ShiftErr        ....    0.0010
 Zerner damping         CNVZerner       .... off
 Static damping         CNVDamp         .... on
   Fraction old density DampFac         ....    0.7000
   Max. Damping (<1)    DampMax         ....    0.9800
   Min. Damping (>=0)   DampMin         ....    0.0000
   Turn off err/grad.   DampErr         ....    0.1000
 Fernandez-Rico         CNVRico         .... off

SCF Procedure:
 Maximum # iterations   MaxIter         ....   125
 SCF integral mode      SCFMode         .... Direct
   Integral package                     .... SHARK and LIBINT hybrid scheme
 Reset frequency        DirectResetFreq ....    20
 Integral Threshold     Thresh          ....  1.000e-12 Eh
 Primitive CutOff       TCut            ....  1.000e-14 Eh

Convergence Tolerance:
 Convergence Check Mode ConvCheckMode   .... Total+1el-Energy
 Convergence forced     ConvForced      .... 1
 Energy Change          TolE            ....  1.000e-09 Eh
 1-El. energy change                    ....  1.000e-06 Eh
 Orbital Gradient       TolG            ....  2.000e-06
 Orbital Rotation angle TolX            ....  2.000e-06
 DIIS Error             TolErr          ....  1.000e-08


Diagonalization of the overlap matrix:
Smallest eigenvalue                        ... 5.848e-06
Time for diagonalization                   ...    0.162 sec
Threshold for overlap eigenvalues          ... 1.000e-08
Number of eigenvalues below threshold      ... 0
Time for construction of square roots      ...    0.105 sec
Total time needed                          ...    0.270 sec

Time for model grid setup =    0.338 sec

------------------------------
INITIAL GUESS: MODEL POTENTIAL
------------------------------
Loading Hartree-Fock densities                     ... done
Calculating cut-offs                               ... done
Initializing the effective Hamiltonian             ... done
Setting up the integral package (SHARK)            ... done
Starting the Coulomb interaction                   ... done (   0.7 sec)
Reading the grid                                   ... done
Mapping shells                                     ... done
Starting the XC term evaluation                    ... done (   0.2 sec)
Transforming the Hamiltonian                       ... done (   0.1 sec)
Diagonalizing the Hamiltonian                      ... done (   0.2 sec)
Back transforming the eigenvectors                 ... done (   0.0 sec)
Now organizing SCF variables                       ... done
                      ------------------
                      INITIAL GUESS DONE (   1.6 sec)
                      ------------------
--------------
SCF ITERATIONS
--------------
ITER       Energy         Delta-E        Max-DP      RMS-DP      [F,P]     Damp
               ***  Starting incremental Fock matrix formation  ***
  0  -1081.8855977419   0.000000000000 0.03554354  0.00047899  0.3472570 0.7000
  1  -1082.1449374213  -0.259339679421 0.02675070  0.00039452  0.2523170 0.7000
                               ***Turning on DIIS***
  2  -1082.3095517992  -0.164614377873 0.01897591  0.00028735  0.1826324 0.7000
  3  -1084.2285445973  -1.918992798086 0.01769039  0.00021959  0.1316664 0.7000
  4  -1084.0122839627   0.216260634577 0.04640134  0.00056858  0.0929280 0.0000
  5  -1082.7210901157   1.291193847007 0.00616088  0.00006563  0.0037899 0.0000
                      *** Initiating the SOSCF procedure ***
                           *** Shutting down DIIS ***
                      *** Re-Reading the Fockian *** 
                      *** Removing any level shift *** 
ITER      Energy       Delta-E        Grad      Rot      Max-DP    RMS-DP
  6  -1082.66600335   0.0550867645  0.000772  0.000772  0.003594  0.000031
               *** Restarting incremental Fock matrix formation ***
  7  -1082.66868222  -0.0026788714  0.000495  0.001080  0.001200  0.000015
  8  -1082.66870119  -0.0000189647  0.000124  0.000596  0.000887  0.000011
  9  -1082.66870625  -0.0000050674  0.000085  0.000131  0.000211  0.000003
 10  -1082.66870677  -0.0000005133  0.000051  0.000135  0.000120  0.000002
 11  -1082.66870689  -0.0000001267  0.000016  0.000081  0.000028  0.000000
 12  -1082.66870693  -0.0000000351  0.000009  0.000030  0.000032  0.000000
 13  -1082.66870693  -0.0000000052  0.000001  0.000008  0.000011  0.000000
 14  -1082.66870694  -0.0000000006  0.000001  0.000002  0.000003  0.000000
                  ***Gradient check signals convergence***
              ***Rediagonalizing the Fockian in SOSCF/NRSCF***

               *****************************************************
               *                     SUCCESS                       *
               *           SCF CONVERGED AFTER  15 CYCLES          *
               *****************************************************


----------------
TOTAL SCF ENERGY
----------------

Total Energy       :        -1082.66870694 Eh          -29460.91328 eV

Components:
Nuclear Repulsion  :         1851.65379226 Eh           50386.06127 eV
Electronic Energy  :        -2934.32249920 Eh          -79846.97454 eV
One Electron Energy:        -5144.66954565 Eh         -139993.57547 eV
Two Electron Energy:         2210.34704645 Eh           60146.60093 eV

Virial components:
Potential Energy   :        -2164.49817948 Eh          -58898.98983 eV
Kinetic Energy     :         1081.82947255 Eh           29438.07655 eV
Virial Ratio       :            2.00077575


---------------
SCF CONVERGENCE
---------------

  Last Energy change         ...   -1.3370e-10  Tolerance :   1.0000e-09
  Last MAX-Density change    ...    1.0627e-06  Tolerance :   1.0000e-08
  Last RMS-Density change    ...    1.5306e-08  Tolerance :   1.0000e-09
  Last Orbital Gradient      ...    1.6061e-07  Tolerance :   2.0000e-06
  Last Orbital Rotation      ...    4.8421e-07  Tolerance :   2.0000e-06

             **** THE GBW FILE WAS UPDATED (Fluoxetine_35.gbw) ****
             **** DENSITY Fluoxetine_35.scfp WAS UPDATED ****
             **** ENERGY FILE WAS UPDATED (Fluoxetine_35.en.tmp) ****
             **** THE GBW FILE WAS UPDATED (Fluoxetine_35.gbw) ****
             **** DENSITY Fluoxetine_35.scfp WAS UPDATED ****
----------------
ORBITAL ENERGIES
----------------

  NO   OCC          E(Eh)            E(eV) 
   0   2.0000     -26.416420      -718.8273 
   1   2.0000     -26.412462      -718.7196 
   2   2.0000     -26.411176      -718.6846 
   3   2.0000     -20.729704      -564.0839 
   4   2.0000     -15.847940      -431.2444 
   5   2.0000     -11.589566      -315.3681 
   6   2.0000     -11.454140      -311.6830 
   7   2.0000     -11.446876      -311.4853 
   8   2.0000     -11.442081      -311.3549 
   9   2.0000     -11.435828      -311.1847 
  10   2.0000     -11.392636      -310.0094 
  11   2.0000     -11.367076      -309.3139 
  12   2.0000     -11.366258      -309.2916 
  13   2.0000     -11.360936      -309.1468 
  14   2.0000     -11.358382      -309.0773 
  15   2.0000     -11.356728      -309.0323 
  16   2.0000     -11.354631      -308.9752 
  17   2.0000     -11.342737      -308.6516 
  18   2.0000     -11.337094      -308.4980 
  19   2.0000     -11.334574      -308.4294 
  20   2.0000     -11.333115      -308.3897 
  21   2.0000     -11.331040      -308.3333 
  22   2.0000      -1.808789       -49.2196 
  23   2.0000      -1.714283       -46.6480 
  24   2.0000      -1.709236       -46.5107 
  25   2.0000      -1.556411       -42.3521 
  26   2.0000      -1.485570       -40.4244 
  27   2.0000      -1.293379       -35.1946 
  28   2.0000      -1.271879       -34.6096 
  29   2.0000      -1.235019       -33.6066 
  30   2.0000      -1.178097       -32.0577 
  31   2.0000      -1.157581       -31.4994 
  32   2.0000      -1.149147       -31.2699 
  33   2.0000      -1.124343       -30.5949 
  34   2.0000      -1.120839       -30.4996 
  35   2.0000      -1.080377       -29.3985 
  36   2.0000      -1.052333       -28.6354 
  37   2.0000      -1.007958       -27.4279 
  38   2.0000      -0.976304       -26.5666 
  39   2.0000      -0.957417       -26.0526 
  40   2.0000      -0.951714       -25.8974 
  41   2.0000      -0.933573       -25.4038 
  42   2.0000      -0.911840       -24.8124 
  43   2.0000      -0.901176       -24.5222 
  44   2.0000      -0.900225       -24.4964 
  45   2.0000      -0.890463       -24.2307 
  46   2.0000      -0.861904       -23.4536 
  47   2.0000      -0.844692       -22.9852 
  48   2.0000      -0.827698       -22.5228 
  49   2.0000      -0.816971       -22.2309 
  50   2.0000      -0.807792       -21.9811 
  51   2.0000      -0.788479       -21.4556 
  52   2.0000      -0.786203       -21.3937 
  53   2.0000      -0.771993       -21.0070 
  54   2.0000      -0.765501       -20.8303 
  55   2.0000      -0.758149       -20.6303 
  56   2.0000      -0.748556       -20.3692 
  57   2.0000      -0.743141       -20.2219 
  58   2.0000      -0.740856       -20.1597 
  59   2.0000      -0.739672       -20.1275 
  60   2.0000      -0.738010       -20.0823 
  61   2.0000      -0.729749       -19.8575 
  62   2.0000      -0.725707       -19.7475 
  63   2.0000      -0.723288       -19.6817 
  64   2.0000      -0.716707       -19.5026 
  65   2.0000      -0.710986       -19.3469 
  66   2.0000      -0.699930       -19.0461 
  67   2.0000      -0.688943       -18.7471 
  68   2.0000      -0.679239       -18.4830 
  69   2.0000      -0.659527       -17.9466 
  70   2.0000      -0.649981       -17.6869 
  71   2.0000      -0.637932       -17.3590 
  72   2.0000      -0.624492       -16.9933 
  73   2.0000      -0.613183       -16.6856 
  74   2.0000      -0.602884       -16.4053 
  75   2.0000      -0.593540       -16.1510 
  76   2.0000      -0.589978       -16.0541 
  77   2.0000      -0.472508       -12.8576 
  78   2.0000      -0.456094       -12.4110 
  79   2.0000      -0.444435       -12.0937 
  80   2.0000      -0.439659       -11.9637 
  81   0.0000      -0.036457        -0.9920 
  82   0.0000      -0.014243        -0.3876 
  83   0.0000      -0.002635        -0.0717 
  84   0.0000       0.002072         0.0564 
  85   0.0000       0.013179         0.3586 
  86   0.0000       0.015556         0.4233 
  87   0.0000       0.021248         0.5782 
  88   0.0000       0.033825         0.9204 
  89   0.0000       0.045728         1.2443 
  90   0.0000       0.053198         1.4476 
  91   0.0000       0.059060         1.6071 
  92   0.0000       0.067021         1.8237 
  93   0.0000       0.070892         1.9291 
  94   0.0000       0.081677         2.2225 
  95   0.0000       0.086638         2.3575 
  96   0.0000       0.093239         2.5372 
  97   0.0000       0.096621         2.6292 
  98   0.0000       0.106985         2.9112 
  99   0.0000       0.109921         2.9911 
 100   0.0000       0.111839         3.0433 
 101   0.0000       0.121748         3.3129 
 102   0.0000       0.123187         3.3521 
 103   0.0000       0.132199         3.5973 
 104   0.0000       0.142061         3.8657 
 105   0.0000       0.143350         3.9007 
 106   0.0000       0.155174         4.2225 
 107   0.0000       0.156250         4.2518 
 108   0.0000       0.172733         4.7003 
 109   0.0000       0.179181         4.8758 
 110   0.0000       0.184147         5.0109 
 111   0.0000       0.189226         5.1491 
 112   0.0000       0.193471         5.2646 
 113   0.0000       0.200408         5.4534 
 114   0.0000       0.207786         5.6541 
 115   0.0000       0.213962         5.8222 
 116   0.0000       0.219849         5.9824 
 117   0.0000       0.223508         6.0820 
 118   0.0000       0.226453         6.1621 
 119   0.0000       0.231385         6.2963 
 120   0.0000       0.233864         6.3638 
 121   0.0000       0.238420         6.4877 
 122   0.0000       0.246999         6.7212 
 123   0.0000       0.250668         6.8210 
 124   0.0000       0.254537         6.9263 
 125   0.0000       0.259902         7.0723 
 126   0.0000       0.262528         7.1438 
 127   0.0000       0.266366         7.2482 
 128   0.0000       0.272969         7.4279 
 129   0.0000       0.280230         7.6254 
 130   0.0000       0.282079         7.6758 
 131   0.0000       0.286733         7.8024 
 132   0.0000       0.291137         7.9222 
 133   0.0000       0.297995         8.1089 
 134   0.0000       0.306839         8.3495 
 135   0.0000       0.311680         8.4812 
 136   0.0000       0.320190         8.7128 
 137   0.0000       0.328794         8.9469 
 138   0.0000       0.331024         9.0076 
 139   0.0000       0.338625         9.2145 
 140   0.0000       0.343734         9.3535 
 141   0.0000       0.347053         9.4438 
 142   0.0000       0.359284         9.7766 
 143   0.0000       0.360465         9.8088 
 144   0.0000       0.366863         9.9829 
 145   0.0000       0.371514        10.1094 
 146   0.0000       0.373161        10.1542 
 147   0.0000       0.380700        10.3594 
 148   0.0000       0.387896        10.5552 
 149   0.0000       0.389426        10.5968 
 150   0.0000       0.394492        10.7347 
 151   0.0000       0.398456        10.8425 
 152   0.0000       0.401993        10.9388 
 153   0.0000       0.405154        11.0248 
 154   0.0000       0.410919        11.1817 
 155   0.0000       0.414337        11.2747 
 156   0.0000       0.419261        11.4087 
 157   0.0000       0.424022        11.5382 
 158   0.0000       0.425352        11.5744 
 159   0.0000       0.430229        11.7071 
 160   0.0000       0.432873        11.7791 
 161   0.0000       0.438398        11.9294 
 162   0.0000       0.445605        12.1255 
 163   0.0000       0.453767        12.3476 
 164   0.0000       0.454920        12.3790 
 165   0.0000       0.457197        12.4410 
 166   0.0000       0.463557        12.6140 
 167   0.0000       0.464119        12.6293 
 168   0.0000       0.467780        12.7289 
 169   0.0000       0.471739        12.8367 
 170   0.0000       0.476937        12.9781 
 171   0.0000       0.483682        13.1617 
 172   0.0000       0.484098        13.1730 
 173   0.0000       0.488739        13.2993 
 174   0.0000       0.495748        13.4900 
 175   0.0000       0.500951        13.6316 
 176   0.0000       0.504439        13.7265 
 177   0.0000       0.511520        13.9192 
 178   0.0000       0.516794        14.0627 
 179   0.0000       0.520568        14.1654 
 180   0.0000       0.521664        14.1952 
 181   0.0000       0.527720        14.3600 
 182   0.0000       0.532886        14.5006 
 183   0.0000       0.542711        14.7679 
 184   0.0000       0.544557        14.8181 
 185   0.0000       0.545123        14.8335 
 186   0.0000       0.550519        14.9804 
 187   0.0000       0.560073        15.2404 
 188   0.0000       0.563831        15.3426 
 189   0.0000       0.572104        15.5677 
 190   0.0000       0.581055        15.8113 
 191   0.0000       0.585027        15.9194 
 192   0.0000       0.591039        16.0830 
 193   0.0000       0.597053        16.2466 
 194   0.0000       0.606125        16.4935 
 195   0.0000       0.609159        16.5761 
 196   0.0000       0.615612        16.7517 
 197   0.0000       0.620536        16.8856 
 198   0.0000       0.630138        17.1469 
 199   0.0000       0.635668        17.2974 
 200   0.0000       0.637667        17.3518 
 201   0.0000       0.657489        17.8912 
 202   0.0000       0.665509        18.1094 
 203   0.0000       0.670056        18.2331 
 204   0.0000       0.681546        18.5458 
 205   0.0000       0.689973        18.7751 
 206   0.0000       0.697352        18.9759 
 207   0.0000       0.708758        19.2863 
 208   0.0000       0.714852        19.4521 
 209   0.0000       0.717403        19.5215 
 210   0.0000       0.722075        19.6487 
 211   0.0000       0.733698        19.9649 
 212   0.0000       0.735112        20.0034 
 213   0.0000       0.747320        20.3356 
 214   0.0000       0.756154        20.5760 
 215   0.0000       0.757873        20.6228 
 216   0.0000       0.766994        20.8710 
 217   0.0000       0.770878        20.9767 
 218   0.0000       0.776807        21.1380 
 219   0.0000       0.782245        21.2860 
 220   0.0000       0.788744        21.4628 
 221   0.0000       0.792368        21.5614 
 222   0.0000       0.796573        21.6759 
 223   0.0000       0.801552        21.8113 
 224   0.0000       0.806229        21.9386 
 225   0.0000       0.814047        22.1513 
 226   0.0000       0.816605        22.2210 
 227   0.0000       0.822754        22.3883 
 228   0.0000       0.827738        22.5239 
 229   0.0000       0.833995        22.6942 
 230   0.0000       0.835991        22.7485 
 231   0.0000       0.840409        22.8687 
 232   0.0000       0.841824        22.9072 
 233   0.0000       0.845720        23.0132 
 234   0.0000       0.847114        23.0511 
 235   0.0000       0.861779        23.4502 
 236   0.0000       0.863491        23.4968 
 237   0.0000       0.871282        23.7088 
 238   0.0000       0.875495        23.8234 
 239   0.0000       0.887008        24.1367 
 240   0.0000       0.890731        24.2380 
 241   0.0000       0.895714        24.3736 
 242   0.0000       0.898476        24.4488 
 243   0.0000       0.908360        24.7177 
 244   0.0000       0.913703        24.8631 
 245   0.0000       0.918029        24.9809 
 246   0.0000       0.924624        25.1603 
 247   0.0000       0.939083        25.5537 
 248   0.0000       0.946314        25.7505 
 249   0.0000       0.948490        25.8097 
 250   0.0000       0.956329        26.0230 
 251   0.0000       0.967235        26.3198 
 252   0.0000       0.969592        26.3839 
 253   0.0000       0.975221        26.5371 
 254   0.0000       0.984443        26.7880 
 255   0.0000       0.990426        26.9509 
 256   0.0000       0.997997        27.1569 
 257   0.0000       1.002362        27.2757 
 258   0.0000       1.007126        27.4053 
 259   0.0000       1.017158        27.6783 
 260   0.0000       1.025838        27.9145 
 261   0.0000       1.036307        28.1993 
 262   0.0000       1.039242        28.2792 
 263   0.0000       1.043838        28.4043 
 264   0.0000       1.045235        28.4423 
 265   0.0000       1.053401        28.6645 
 266   0.0000       1.063275        28.9332 
 267   0.0000       1.073516        29.2119 
 268   0.0000       1.077825        29.3291 
 269   0.0000       1.083210        29.4756 
 270   0.0000       1.091217        29.6935 
 271   0.0000       1.098160        29.8825 
 272   0.0000       1.102544        30.0017 
 273   0.0000       1.107006        30.1232 
 274   0.0000       1.110989        30.2315 
 275   0.0000       1.117305        30.4034 
 276   0.0000       1.126503        30.6537 
 277   0.0000       1.136320        30.9208 
 278   0.0000       1.140642        31.0385 
 279   0.0000       1.143841        31.1255 
 280   0.0000       1.147711        31.2308 
 281   0.0000       1.155590        31.4452 
 282   0.0000       1.163205        31.6524 
 283   0.0000       1.165361        31.7111 
 284   0.0000       1.175485        31.9866 
 285   0.0000       1.185203        32.2510 
 286   0.0000       1.192066        32.4378 
 287   0.0000       1.194685        32.5090 
 288   0.0000       1.202461        32.7206 
 289   0.0000       1.211292        32.9609 
 290   0.0000       1.222090        33.2548 
 291   0.0000       1.227136        33.3921 
 292   0.0000       1.232729        33.5443 
 293   0.0000       1.240537        33.7567 
 294   0.0000       1.246424        33.9169 
 295   0.0000       1.250168        34.0188 
 296   0.0000       1.256068        34.1793 
 297   0.0000       1.261001        34.3136 
 298   0.0000       1.262755        34.3613 
 299   0.0000       1.274968        34.6936 
 300   0.0000       1.287116        35.0242 
 301   0.0000       1.292689        35.1759 
 302   0.0000       1.298358        35.3301 
 303   0.0000       1.306339        35.5473 
 304   0.0000       1.310680        35.6654 
 305   0.0000       1.329440        36.1759 
 306   0.0000       1.332472        36.2584 
 307   0.0000       1.339678        36.4545 
 308   0.0000       1.341427        36.5021 
 309   0.0000       1.344347        36.5815 
 310   0.0000       1.346576        36.6422 
 311   0.0000       1.361275        37.0422 
 312   0.0000       1.367273        37.2054 
 313   0.0000       1.374446        37.4006 
 314   0.0000       1.384986        37.6874 
 315   0.0000       1.392239        37.8847 
 316   0.0000       1.398144        38.0454 
 317   0.0000       1.401727        38.1429 
 318   0.0000       1.407058        38.2880 
 319   0.0000       1.419058        38.6145 
 320   0.0000       1.422872        38.7183 
 321   0.0000       1.430115        38.9154 
 322   0.0000       1.434654        39.0389 
 323   0.0000       1.440819        39.2067 
 324   0.0000       1.449803        39.4511 
 325   0.0000       1.456014        39.6202 
 326   0.0000       1.457174        39.6517 
 327   0.0000       1.461496        39.7693 
 328   0.0000       1.467594        39.9353 
 329   0.0000       1.471347        40.0374 
 330   0.0000       1.482026        40.3280 
 331   0.0000       1.485423        40.4204 
 332   0.0000       1.486662        40.4541 
 333   0.0000       1.498015        40.7631 
 334   0.0000       1.503157        40.9030 
 335   0.0000       1.510536        41.1038 
 336   0.0000       1.515954        41.2512 
 337   0.0000       1.521224        41.3946 
 338   0.0000       1.522797        41.4374 
 339   0.0000       1.532414        41.6991 
 340   0.0000       1.542304        41.9682 
 341   0.0000       1.548496        42.1367 
 342   0.0000       1.558745        42.4156 
 343   0.0000       1.563636        42.5487 
 344   0.0000       1.568355        42.6771 
 345   0.0000       1.570896        42.7463 
 346   0.0000       1.577609        42.9289 
 347   0.0000       1.587232        43.1908 
 348   0.0000       1.594737        43.3950 
 349   0.0000       1.609716        43.8026 
 350   0.0000       1.616882        43.9976 
 351   0.0000       1.621817        44.1319 
 352   0.0000       1.629817        44.3496 
 353   0.0000       1.637187        44.5501 
 354   0.0000       1.645817        44.7850 
 355   0.0000       1.647021        44.8177 
 356   0.0000       1.653765        45.0012 
 357   0.0000       1.662855        45.2486 
 358   0.0000       1.677382        45.6439 
 359   0.0000       1.681152        45.7465 
 360   0.0000       1.684968        45.8503 
 361   0.0000       1.697028        46.1785 
 362   0.0000       1.698308        46.2133 
 363   0.0000       1.708893        46.5014 
 364   0.0000       1.719322        46.7851 
 365   0.0000       1.722027        46.8587 
 366   0.0000       1.726290        46.9747 
 367   0.0000       1.732156        47.1344 
 368   0.0000       1.742889        47.4264 
 369   0.0000       1.750358        47.6297 
 370   0.0000       1.755667        47.7741 
 371   0.0000       1.765685        48.0467 
 372   0.0000       1.769088        48.1393 
 373   0.0000       1.779302        48.4173 
 374   0.0000       1.787185        48.6318 
 375   0.0000       1.791344        48.7449 
 376   0.0000       1.808288        49.2060 
 377   0.0000       1.820973        49.5512 
 378   0.0000       1.824507        49.6474 
 379   0.0000       1.837396        49.9981 
 380   0.0000       1.850923        50.3662 
 381   0.0000       1.857935        50.5570 
 382   0.0000       1.867844        50.8266 
 383   0.0000       1.871286        50.9203 
 384   0.0000       1.885914        51.3183 
 385   0.0000       1.895492        51.5790 
 386   0.0000       1.910995        52.0008 
 387   0.0000       1.918860        52.2148 
 388   0.0000       1.926906        52.4338 
 389   0.0000       1.929847        52.5138 
 390   0.0000       1.943197        52.8771 
 391   0.0000       1.949598        53.0512 
 392   0.0000       1.959862        53.3306 
 393   0.0000       1.966999        53.5248 
 394   0.0000       1.971452        53.6459 
 395   0.0000       1.977187        53.8020 
 396   0.0000       1.993366        54.2423 
 397   0.0000       1.997871        54.3648 
 398   0.0000       2.011634        54.7393 
 399   0.0000       2.037354        55.4392 
 400   0.0000       2.048402        55.7399 
 401   0.0000       2.064275        56.1718 
 402   0.0000       2.080041        56.6008 
 403   0.0000       2.083504        56.6950 
 404   0.0000       2.096491        57.0484 
 405   0.0000       2.106916        57.3321 
 406   0.0000       2.113743        57.5179 
 407   0.0000       2.136199        58.1289 
 408   0.0000       2.139541        58.2199 
 409   0.0000       2.161155        58.8080 
 410   0.0000       2.165086        58.9150 
 411   0.0000       2.171101        59.0787 
 412   0.0000       2.180466        59.3335 
 413   0.0000       2.184051        59.4311 
 414   0.0000       2.188317        59.5471 
 415   0.0000       2.203275        59.9542 
 416   0.0000       2.209971        60.1364 
 417   0.0000       2.229258        60.6612 
 418   0.0000       2.241314        60.9892 
 419   0.0000       2.248680        61.1897 
 420   0.0000       2.263474        61.5923 
 421   0.0000       2.269141        61.7465 
 422   0.0000       2.285546        62.1929 
 423   0.0000       2.293250        62.4025 
 424   0.0000       2.297201        62.5100 
 425   0.0000       2.319658        63.1211 
 426   0.0000       2.323601        63.2284 
 427   0.0000       2.336098        63.5685 
 428   0.0000       2.347374        63.8753 
 429   0.0000       2.358528        64.1788 
 430   0.0000       2.377117        64.6846 
 431   0.0000       2.382386        64.8280 
 432   0.0000       2.401671        65.3528 
 433   0.0000       2.420834        65.8742 
 434   0.0000       2.423779        65.9544 
 435   0.0000       2.431147        66.1549 
 436   0.0000       2.439840        66.3914 
 437   0.0000       2.459652        66.9305 
 438   0.0000       2.477158        67.4069 
 439   0.0000       2.482131        67.5422 
 440   0.0000       2.509271        68.2807 
 441   0.0000       2.514421        68.4209 
 442   0.0000       2.518523        68.5325 
 443   0.0000       2.519448        68.5577 
 444   0.0000       2.529230        68.8238 
 445   0.0000       2.559185        69.6390 
 446   0.0000       2.574469        70.0549 
 447   0.0000       2.586487        70.3819 
 448   0.0000       2.590511        70.4914 
 449   0.0000       2.596578        70.6565 
 450   0.0000       2.606554        70.9279 
 451   0.0000       2.614409        71.1417 
 452   0.0000       2.626115        71.4602 
 453   0.0000       2.629525        71.5530 
 454   0.0000       2.637011        71.7567 
 455   0.0000       2.639744        71.8311 
 456   0.0000       2.643477        71.9327 
 457   0.0000       2.662583        72.4526 
 458   0.0000       2.664001        72.4911 
 459   0.0000       2.678620        72.8890 
 460   0.0000       2.685573        73.0782 
 461   0.0000       2.703415        73.5637 
 462   0.0000       2.716224        73.9122 
 463   0.0000       2.723300        74.1048 
 464   0.0000       2.740069        74.5611 
 465   0.0000       2.744127        74.6715 
 466   0.0000       2.746290        74.7303 
 467   0.0000       2.762887        75.1820 
 468   0.0000       2.783224        75.7354 
 469   0.0000       2.793098        76.0041 
 470   0.0000       2.806759        76.3758 
 471   0.0000       2.808837        76.4323 
 472   0.0000       2.823154        76.8219 
 473   0.0000       2.841596        77.3238 
 474   0.0000       2.852467        77.6196 
 475   0.0000       2.855841        77.7114 
 476   0.0000       2.866324        77.9966 
 477   0.0000       2.868531        78.0567 
 478   0.0000       2.871266        78.1311 
 479   0.0000       2.880753        78.3893 
 480   0.0000       2.892208        78.7010 
 481   0.0000       2.899701        78.9049 
 482   0.0000       2.915168        79.3258 
 483   0.0000       2.920808        79.4792 
 484   0.0000       2.925687        79.6120 
 485   0.0000       2.931580        79.7724 
 486   0.0000       2.937586        79.9358 
 487   0.0000       2.938823        79.9694 
 488   0.0000       2.943501        80.0967 
 489   0.0000       2.948010        80.2194 
 490   0.0000       2.953581        80.3710 
 491   0.0000       2.964742        80.6747 
 492   0.0000       2.971751        80.8654 
 493   0.0000       2.976479        80.9941 
 494   0.0000       2.984625        81.2158 
 495   0.0000       2.997242        81.5591 
 496   0.0000       3.005055        81.7717 
 497   0.0000       3.016659        82.0875 
 498   0.0000       3.022252        82.2397 
 499   0.0000       3.029141        82.4271 
 500   0.0000       3.034892        82.5836 
 501   0.0000       3.038388        82.6787 
 502   0.0000       3.045414        82.8699 
 503   0.0000       3.052935        83.0746 
 504   0.0000       3.055261        83.1379 
 505   0.0000       3.062556        83.3364 
 506   0.0000       3.077795        83.7511 
 507   0.0000       3.085836        83.9699 
 508   0.0000       3.089085        84.0583 
 509   0.0000       3.103059        84.4385 
 510   0.0000       3.108864        84.5965 
 511   0.0000       3.115082        84.7657 
 512   0.0000       3.118360        84.8549 
 513   0.0000       3.123787        85.0026 
 514   0.0000       3.130815        85.1938 
 515   0.0000       3.135842        85.3306 
 516   0.0000       3.140296        85.4518 
 517   0.0000       3.144272        85.5600 
 518   0.0000       3.147658        85.6521 
 519   0.0000       3.163377        86.0799 
 520   0.0000       3.166071        86.1532 
 521   0.0000       3.169051        86.2343 
 522   0.0000       3.176853        86.4466 
 523   0.0000       3.182552        86.6017 
 524   0.0000       3.192328        86.8677 
 525   0.0000       3.197520        87.0089 
 526   0.0000       3.205401        87.2234 
 527   0.0000       3.210200        87.3540 
 528   0.0000       3.214938        87.4829 
[...]
                                                          --------------------
sum of all corrections                                         -0.027600544135
Initial total correlation energy                               -3.748180901292
Thresholds for map construction and integral transformation for fine MP2 and CCSD(T) calculation:
   TCutMKN   ...     1.0e-03
   TCutDO    ...     1.0e-02
   TCutPairs ...     1.0e-04
   TCutCMO   ...     1.0e-03
   TCutCPAO  ...     1.0e-03

Thresholds for map construction and integral transformation for strong Triples:
   TCutMKN   ...     1.0e-02
   TCutDO    ...     2.0e-02
   TCutCMO   ...     1.0e-03
   TCutCPAO  ...     1.0e-03

Thresholds for map construction and integral transformation for weak Triples:
   TCutMKN   ...     1.0e-01
   TCutDO    ...     4.0e-02
   TCutCMO   ...     1.0e-03
   TCutCPAO  ...     1.0e-03

--------------------------------
LOCAL RI TRANSFORMATION (IAVPAO)
--------------------------------

Orbital window:      22 to 80
Number of PAOs:     948
Basis functions:    948 (356 shells)
Aux. functions:    2242 (674 shells)
Use SHARK:           on

Processing maps (0.0 sec)
Average map sizes:
   Aux shells -> MOs              48.2
   Aux shells -> PAOs            948.0
   MOs        -> AO shells       293.4
   PAOs       -> AO shells       339.4

Calculating integrals (5.9 sec, 785.493 MB)
Sorting integrals (0.9 sec, 785.468 MB)
Total time for the integral transformation: 6.9 sec
--------------------------------
INITIAL GUESS AND PNO GENERATION
--------------------------------

PNO truncation parameters                   .... 
    PAOOverlapThresh   =        1.000e-08

    TCutPairs          =        1.000e-04
    TCutPNO            =        3.330e-07
    TCutPNOSingles     =        9.990e-09
    TCutMP2Pairs       =        1.000e-05
    TCutMKN            =        1.000e-03
    TCutDO             =        1.000e-02

Pair selection                          .... not used
Type of local MP2 treatment                 .... semi-local MP2
Strategy for PNO selection                  .... occupation number selection
Pair density normalization                  .... MP2 norm
Spin component scaling                      .... not used

   .... Finished loop over pairs

 PNO Occupation Number Statistics: 
  | Av. % of trace(Dij) retained        ...  97.391357279611
  | sigma^2 in % of trace(Dij) retained ...   6.47e+00
  | Av. % of trace(Di) retained         ...  99.998964705818
  | sigma^2 in % of trace(Di) retained  ...   1.45e-07
 Distributions of % trace(Dij) recovered:
  |       >= 99.9  ...   174 ( 16.7 % of all pairs)
  |   [80.0, 90.0) ...    14 (  1.3 % of all pairs)
  |   [90.0, 99.0) ...   635 ( 61.1 % of all pairs)
  |   [99.0, 99.9) ...   216 ( 20.8 % of all pairs)
 Distributions of % trace(Di) recovered :
  |       >= 99.9  ...    59 (100.0 % of all I-pairs )

Making pair pair interaction lists          ... done

                       ===========================
                        645 OF 1039 PAIRS ARE KEPT
                       ===========================

Total time spent in the initial guess                 ...    46.138 sec
SL-MP2 correlation energy (all non-screened pairs)    ...      -3.749117688763 Eh

Initial PNO correlation energy                        ...      -3.723054831343 Eh
sum of pair energies estimated for screened out pairs ...      -0.001633823720 Eh
sum of MP2 pair energies for pairs that were not kept ...      -0.014192625817 Eh
sum of PNO error estimates for the kept pairs         ...      -0.011870231603 Eh
                                                          --------------------
sum of all corrections                                         -0.027696681140
Initial total correlation energy                               -3.750751512482
Thresholds for map construction and integral transformation for fine MP2 and CCSD(T) calculation:
   TCutMKN   ...     1.0e-03
   TCutDO    ...     1.0e-02
   TCutPairs ...     1.0e-04
   TCutCMO   ...     1.0e-03
   TCutCPAO  ...     1.0e-03

Time for aux screen maps:            0.009
Time for maps after fine MP2:            0.051
-----------------------------
LOCAL RI TRANSFORMATION (IJV)
-----------------------------

Orbital window:      22 to 80
Basis functions:    948 (356 shells)
Aux. functions:    2242 (674 shells)
Use SHARK:           on

Processing maps (0.0 sec)
Average map sizes:
   Aux shells -> MOs(i)           39.8
   Aux shells -> MOs(j)           59.0
   MOs        -> AO shells       293.4

Calculating integrals (4.7 sec, 40.464 MB)
Sorting integrals (0.1 sec, 40.439 MB)
Total time for the integral transformation: 4.8 sec
--------------------------------
LOCAL RI TRANSFORMATION (VABPAO)
--------------------------------

Number of PAOs:     948
Basis functions:    948 (356 shells)
Aux. functions:    2242 (674 shells)
Use SHARK:           on

Processing maps (0.0 sec)
Average map sizes:
   Aux shells -> PAOs            885.2
   PAOs       -> AO shells       339.4

Calculating integrals (32.1 sec, 13550.629 MB)
Finished


-------------------------------------
Pair Pair Term precalculation with     
RI-(ij|mn) and (im|jn) transformation  
ON THE FLY                             
-------------------------------------

   IBatch   1 (of   8)              ... done (   22.704 sec)
   IBatch   2 (of   8)              ... done (   32.716 sec)
   IBatch   3 (of   8)              ... done (   45.061 sec)
   IBatch   4 (of   8)              ... done (   55.760 sec)
   IBatch   5 (of   8)              ... done (   44.265 sec)
   IBatch   6 (of   8)              ... done (   62.519 sec)
   IBatch   7 (of   8)              ... done (   84.227 sec)
   IBatch   8 (of   8)              ... done (   32.540 sec)
Total EXT                           ...         379.792 sec

---------------------
RI-PNO TRANSFORMATION
---------------------

Total Number of PNOs                   ... 20334
Average number of PNOs per pair        ...    31
Maximal number of PNOs per pair        ...    81
   #pairs with  1 -  5 PNOs   :    0
   #pairs with  6 - 10 PNOs   :   43
   #pairs with 11 - 15 PNOs   :   84
   #pairs with 16 - 20 PNOs   :   94
   #pairs with 21 - 25 PNOs   :   54
   #pairs with 26 - 30 PNOs   :   55
   #pairs with 31 - 35 PNOs   :   84
   #pairs with 36 - 40 PNOs   :   44
   #pairs with 41 - 45 PNOs   :   52
   #pairs with 46 - 50 PNOs   :   39
   #pairs with 51 - 55 PNOs   :   34
   #pairs with 56 - 60 PNOs   :   21
   #pairs with 61 - 65 PNOs   :   11
   #pairs with 66 - 70 PNOs   :    2
   #pairs with 71 - 75 PNOs   :   18
   #pairs with 76 - 80 PNOs   :    8
   #pairs with 81 - 85 PNOs   :    2

Generation of (ij|ab)[P] integrals            ... on
Generation of (ia|bc)[P],(ja|bc)[P] integrals ... on
Storage of 3 and 4 external integrals         ... on
Generation of ALL (ka|bc)[P] integrals        ... on
Keep RI integrals in memory                   ... off

Ibatch:  1 (of  1)
Starting 2-4 index PNO integral generation ... done

Timings:
Total PNO integral transformation time     ...        146.111 sec
Size of the 3-external file                ...       318 MB
Size of the 4-external file                ...      2242 MB
Size of the IKJL file                      ...         0 MB
Size of the all 3-external file            ...      8059 MB
Size of the 1-external file                ...        23 MB

Making pair/pair overlap matrices          ... done (   29.736 sec)
Size of the pair overlap file              ... 2182 MB
Redoing the guess amplitudes               ... done (    0.011 sec)

-------------------------
FINAL STARTUP INFORMATION
-------------------------

E(0)                                       ...  -1082.668706936
E(SL-MP2)                                  ...     -3.749117689
E(SL-MP2) including corrections            ...     -3.750751512
Initial E(tot)                             ...  -1086.419458448
<T|T>                                      ...      0.994815750
Number of pairs included                   ... 645
Total number of pairs                      ... 1770

------------------------------------------------
                  RHF COUPLED CLUSTER ITERATIONS
------------------------------------------------

Number of PNO amplitudes to be optimized   ...       834752
Number of non-PNO amplitudes               ...    484839405
Untruncated number of regular amplitudes   ...   1330489530

Iter       E(tot)           E(Corr)          Delta-E          Residual     Time
  0  -1086.419638599     -3.723234982      0.025882707      0.020170670   35.77
                           *** Turning on DIIS ***
  1  -1086.541092948     -3.844689331     -0.121454349      0.012739022   36.25
  2  -1086.628743272     -3.932339655     -0.087650324      0.003288571   36.58
  3  -1086.644805249     -3.948401632     -0.016061977      0.001975883   38.06
  4  -1086.649583766     -3.953180149     -0.004778517      0.001036135   37.65
  5  -1086.651007966     -3.954604349     -0.001424200      0.000456663   37.44
  6  -1086.651366154     -3.954962538     -0.000358189      0.000164562   37.14
  7  -1086.651422605     -3.955018988     -0.000056450      0.000091424   36.22
  8  -1086.651445402     -3.955041785     -0.000022797      0.000053873   39.09
  9  -1086.651432808     -3.955029191      0.000012595      0.000033067   36.80
 10  -1086.651437106     -3.955033489     -0.000004298      0.000015887   36.17
 11  -1086.651435279     -3.955031663      0.000001827      0.000005185   36.94
 12  -1086.651435637     -3.955032020     -0.000000358      0.000001725   36.61
 13  -1086.651435309     -3.955031692      0.000000328      0.000001031   38.98
 14  -1086.651435262     -3.955031646      0.000000047      0.000000657   38.39
               --- The Coupled-Cluster iterations have converged ---

----------------------
COUPLED CLUSTER ENERGY
----------------------

E(0)                                       ...  -1082.668706936
E(CORR)(strong-pairs)                      ...     -3.955031646
E(CORR)(weak-pairs)                        ...     -0.027696681
E(CORR)(corrected)                         ...     -3.982728327
E(TOT)                                     ...  -1086.651435262
Singles Norm <S|S>**1/2                    ...      0.108558303  
T1 diagnostic                              ...      0.009993602  

------------------
LARGEST AMPLITUDES
------------------
  58-> 83  58-> 83       0.053397
  47-> 81  47-> 81       0.052741
  60-> 81  60-> 81       0.052457
  59-> 81  59-> 81       0.052343
  61-> 81  61-> 81       0.052123
  33-> 81  33-> 81       0.050470
  34-> 81  34-> 81       0.049558
  37-> 83  37-> 83       0.048987
  80-> 81  80-> 81       0.044952
  65-> 81  65-> 81       0.044157
  48-> 82  48-> 82       0.040096
  56-> 82  56-> 82       0.039077
  66-> 84  66-> 84       0.038949
  72-> 85  72-> 85       0.038711
  51-> 81  51-> 81       0.038653
  75-> 85  75-> 85       0.037813


-------------------------------------------
DLPNO BASED TRIPLES CORRECTION
-------------------------------------------

Singles multiplier          ...  1.000000
TCutTNO                     ... 1.000e-09
TCutMP2Pairs                ... 1.000e-05
TCutDOStrong                ... 2.000e-02
TCutMKNStrong               ... 1.000e-02
TCutDOWeak                  ... 4.000e-02
TCutMKNWeak                 ... 1.000e-01

Fragment selection                          .... not used
Fock matrix occ-virt block is zero --> Setting DT_in_Triples to false.
Number of Triples that are to be computed   ...      6752

 . . . . . . .
10% done               (    139.217 sec)
 . . . . . . . . .
20% done               (    162.810 sec)
 . . . . . . . . .
30% done  
40% done  
50% done               (    179.825 sec)
 . . . . . . . . .
60% done  
70% done  
80% done               (    295.672 sec)
 . . . . . . . . .
90% done               (     75.680 sec)
Triples timings:
Total time for T0               ...   930.664 sec
Total time for Iterative (T)    ...     0.000 sec
Total time of overall (T)       ...  1001.602 sec

Triples List generation         ...     0.000 sec
TNO generation                  ...    77.380 sec
Pair density generation         ...     0.030 sec
Look up tables                  ...     0.000 sec
Generating 3-index integrals    ...   579.648 sec
  Make 4-ind.int. from 3-ind.int...    41.912 sec
  Projecting amplitudes (D + S) ...   180.764 sec
  Downprojecting integrals      ...     0.006 sec
  Energy contr. (sum over a,b,c)...     9.020 sec
Fitting ET(->0)                 ...     0.000 sec

Everything after 3-index        ...   273.554 sec

Timing details:
 TNO integrals                  ...   618.866 sec
   Reading 3-index integrals    ...    31.804 sec
   Sorting integrals            ...    79.105 sec
       Sorting integrals 1      ...     0.005 sec
       Sorting integrals 2      ...    68.144 sec
       Sorting integrals 3      ...     2.030 sec
       Sorting integrals 4      ...     0.194 sec
       Sorting integrals 5      ...     0.964 sec
       Sorting integrals 6      ...     7.768 sec
   Calculating local VM**-1/2   ...     2.486 sec
   Orthogonal. integrals        ...     4.335 sec
   Multipl. 3-index integrals   ...   501.136 sec
   All concerning IRIab (w/TNO) ...    25.294 sec

 Calculate W0/W1                ...    41.802 sec
 W 3-ext contribution           ...    23.393 sec
 W 3-int contribution           ...     9.440 sec
 Sorting W                      ...     8.150 sec

 V exchange contribution        ...     3.518 sec

 Timings for Triples without generation
     of 3-index integrals       ...   273.522 sec
       0 weak pairs             ...   196.613 sec
       1 weak pair              ...    76.909 sec
       2 weak pairs             ...     0.000 sec
       3 weak pairs             ...     0.000 sec
  Extra time for extrapolation  ...     0.000 sec

Number of Triples   (0, 1, 2, 3 weak pairs; overall):   4042    2710       0       0  (  6752)
Number of Atoms     (0, 1, 2, 3 weak pairs; overall):   17.1    14.6     0.0     0.0  (    41)
Number of PAOs      (0, 1, 2, 3 weak pairs; overall):  426.6   376.4     0.0     0.0  (   948)
Number of AuxFcns   (0, 1, 2, 3 weak pairs; overall):  484.4   370.1     0.0     0.0  (  2242)
Number of TNOs      (0, 1, 2, 3 weak pairs         ):   85.2    61.0     0.0     0.0
Aver. Number of NTNO, Atoms, PAOs, AuxFcns / Triples:   6752    75.5    16.1   406.5   438.5

Triples Correction (T)                     ...     -0.169618845
Final correlation energy                   ...     -4.152347172
E(CCSD)                                    ...  -1086.651435262
E(CCSD(T))                                 ...  -1086.821054107



--------------------------------------------------------------------------------
                                    TIMINGS
--------------------------------------------------------------------------------


Total execution time                   ...     2436.294 sec

Localization of occupied MO's          ...        2.572 sec (  0.1%)
Fock Matrix Formation                  ...      161.977 sec (  6.6%)
Global overlap, Fock, MKN matrices     ...        1.171 sec (  0.0%)
Differential overlap integrals         ...        3.248 sec (  0.1%)
Organizing maps                        ...        0.143 sec (  0.0%)
RI 3-index integral generations        ...       51.155 sec (  2.1%)
RI-PNO integral transformation         ...      571.817 sec ( 23.5%)
Initial Guess                          ...       83.559 sec (  3.4%)
DIIS Solver                            ...        1.751 sec (  0.1%)
State Vector Update                    ...        0.073 sec (  0.0%)
Sigma-vector construction              ...      556.255 sec ( 22.8%)
  <0|H|D>                              ...        0.002 sec (  0.0% of sigma)
  <D|H|D>(0-ext)                       ...       45.455 sec (  8.2% of sigma)
  <D|H|D>(2-ext Fock)                  ...        0.093 sec (  0.0% of sigma)
  <D|H|D>(2-ext)                       ...       92.755 sec ( 16.7% of sigma)
  <D|H|D>(4-ext)                       ...       37.718 sec (  6.8% of sigma)
  <D|H|D>(4-ext-corr)                  ...      191.839 sec ( 34.5% of sigma)
  CCSD doubles correction              ...        2.009 sec (  0.4% of sigma)
  <S|H|S>                              ...        6.008 sec (  1.1% of sigma)
  <S|H|D>(1-ext)                       ...        4.561 sec (  0.8% of sigma)
  <D|H|S>(1-ext)                       ...        0.084 sec (  0.0% of sigma)
  <S|H|D>(3-ext)                       ...        0.911 sec (  0.2% of sigma)
  CCSD singles correction              ...        0.002 sec (  0.0% of sigma)
  Fock-dressing                        ...       91.835 sec ( 16.5% of sigma)
  Singles amplitudes                   ...        7.284 sec (  1.3% of sigma)
  (ik|jl)-dressing                     ...       45.148 sec (  8.1% of sigma)
  (ij|ab),(ia|jb)-dressing             ...       11.277 sec (  2.0% of sigma)
  Pair energies                        ...        0.027 sec (  0.0% of sigma)
Total Time for computing (T)           ...     1001.955 sec ( 41.1% of ALL)


Maximum memory used throughout the entire MDCI-calculation: 3429.4 MB

-------------------------   --------------------
FINAL SINGLE POINT ENERGY     -1086.821054107257
-------------------------   --------------------


                            ***************************************
                            *     ORCA property calculations      *
                            ***************************************


  WARNING: The energy has been calculated at the MDCI level but the densities
           used in the property calculations are still SCF densities
           MDCI response densities have not been calculated 
           use %mdci Density linearized end
           or  %mdci Density unrelaxed end
           or  %mdci Density orbopt end

                                    ---------------------
                                    Active property flags
                                    ---------------------
   (+) Dipole Moment


------------------------------------------------------------------------------
                       ORCA ELECTRIC PROPERTIES CALCULATION
------------------------------------------------------------------------------

Dipole Moment Calculation                       ... on
Quadrupole Moment Calculation                   ... off
Polarizability Calculation                      ... off
GBWName                                         ... Fluoxetine_35.gbw
Electron density                                ... Fluoxetine_35.scfp
The origin for moment calculation is the CENTER OF MASS  = (-0.101765,  0.235322  0.014727)

-------------
DIPOLE MOMENT
-------------
                                X             Y             Z
Electronic contribution:     38.43089      -4.73697      -2.19944
Nuclear contribution   :    -43.06866       8.40566       2.56264
                        -----------------------------------------
Total Dipole Moment    :     -4.63777       3.66869       0.36320
                        -----------------------------------------
Magnitude (a.u.)       :      5.92453
Magnitude (Debye)      :     15.05897



--------------------
Rotational spectrum 
--------------------
 
Rotational constants in cm-1:     0.011044     0.006054     0.004431 
Rotational constants in MHz :   331.103933   181.500481   132.826411 

 Dipole components along the rotational axes: 
x,y,z [a.u.] :    -3.479489     4.766826    -0.520210 
x,y,z [Debye]:    -8.844158    12.116309    -1.322268 

 

Timings for individual modules:

Sum of individual times         ...     3842.148 sec (=  64.036 min)
GTO integral calculation        ...        2.201 sec (=   0.037 min)   0.1 %
SCF iterations                  ...     1401.754 sec (=  23.363 min)  36.5 %
MDCI module                     ...     2438.194 sec (=  40.637 min)  63.5 %
                             ****ORCA TERMINATED NORMALLY****
TOTAL RUN TIME: 0 days 1 hours 4 minutes 3 seconds 616 msec
