
Lmod is automatically replacing "intel/2020.1.217" with "gcc/10.3.0".


Due to MODULEPATH changes, the following have been reloaded:
  1) blis/0.8.1     2) flexiblas/3.0.4

The following have been reloaded with a version change:
  1) gcccore/.9.3.0 => gcccore/.10.3.0        3) openmpi/4.0.3 => openmpi/4.1.1
  2) libfabric/1.10.1 => libfabric/1.12.1     4) ucx/1.8.0 => ucx/1.9.0

To execute ORCA, run: 
   ${EBROOTORCA}/orca orca.inp > orca.out

                                 *****************
                                 * O   R   C   A *
                                 *****************

                                            #,                                       
                                            ###                                      
                                            ####                                     
                                            #####                                    
                                            ######                                   
                                           ########,                                 
                                     ,,################,,,,,                         
                               ,,#################################,,                 
                          ,,##########################################,,             
                       ,#########################################, ''#####,          
                    ,#############################################,,   '####,        
                  ,##################################################,,,,####,       
                ,###########''''           ''''###############################       
              ,#####''   ,,,,##########,,,,          '''####'''          '####       
            ,##' ,,,,###########################,,,                        '##       
           ' ,,###''''                  '''############,,,                           
         ,,##''                                '''############,,,,        ,,,,,,###''
      ,#''                                            '''#######################'''  
     '                                                          ''''####''''         
             ,#######,   #######,   ,#######,      ##                                
            ,#'     '#,  ##    ##  ,#'     '#,    #''#        ######   ,####,        
            ##       ##  ##   ,#'  ##            #'  '#       #        #'  '#        
            ##       ##  #######   ##           ,######,      #####,   #    #        
            '#,     ,#'  ##    ##  '#,     ,#' ,#      #,         ##   #,  ,#        
             '#######'   ##     ##  '#######'  #'      '#     #####' # '####'        



                  #######################################################
                  #                        -***-                        #
                  #          Department of theory and spectroscopy      #
                  #    Directorship and core code : Frank Neese         #
                  #        Max Planck Institute fuer Kohlenforschung    #
                  #                Kaiser Wilhelm Platz 1               #
                  #                 D-45470 Muelheim/Ruhr               #
                  #                      Germany                        #
                  #                                                     #
                  #                  All rights reserved                #
                  #                        -***-                        #
                  #######################################################


                         Program Version 5.0.3 -  RELEASE  -


 With contributions from (in alphabetic order):
   Daniel Aravena         : Magnetic Suceptibility
   Michael Atanasov       : Ab Initio Ligand Field Theory (pilot matlab implementation)
   Alexander A. Auer      : GIAO ZORA, VPT2 properties, NMR spectrum
   Ute Becker             : Parallelization
   Giovanni Bistoni       : ED, misc. LED, open-shell LED, HFLD
   Martin Brehm           : Molecular dynamics
   Dmytro Bykov           : SCF Hessian
   Vijay G. Chilkuri      : MRCI spin determinant printing, contributions to CSF-ICE
   Dipayan Datta          : RHF DLPNO-CCSD density
   Achintya Kumar Dutta   : EOM-CC, STEOM-CC
   Dmitry Ganyushin       : Spin-Orbit,Spin-Spin,Magnetic field MRCI
   Miquel Garcia          : C-PCM and meta-GGA Hessian, CC/C-PCM, Gaussian charge scheme
   Yang Guo               : DLPNO-NEVPT2, F12-NEVPT2, CIM, IAO-localization
   Andreas Hansen         : Spin unrestricted coupled pair/coupled cluster methods
   Benjamin Helmich-Paris : MC-RPA, TRAH-SCF, COSX integrals
   Lee Huntington         : MR-EOM, pCC
   Robert Izsak           : Overlap fitted RIJCOSX, COSX-SCS-MP3, EOM
   Marcus Kettner         : VPT2
   Christian Kollmar      : KDIIS, OOCD, Brueckner-CCSD(T), CCSD density, CASPT2, CASPT2-K
   Simone Kossmann        : Meta GGA functionals, TD-DFT gradient, OOMP2, MP2 Hessian
   Martin Krupicka        : Initial AUTO-CI
   Lucas Lang             : DCDCAS
   Marvin Lechner         : AUTO-CI (C++ implementation), FIC-MRCC
   Dagmar Lenk            : GEPOL surface, SMD
   Dimitrios Liakos       : Extrapolation schemes; Compound Job, initial MDCI parallelization
   Dimitrios Manganas     : Further ROCIS development; embedding schemes
   Dimitrios Pantazis     : SARC Basis sets
   Anastasios Papadopoulos: AUTO-CI, single reference methods and gradients
   Taras Petrenko         : DFT Hessian,TD-DFT gradient, ASA, ECA, R-Raman, ABS, FL, XAS/XES, NRVS
   Peter Pinski           : DLPNO-MP2, DLPNO-MP2 Gradient
   Christoph Reimann      : Effective Core Potentials
   Marius Retegan         : Local ZFS, SOC
   Christoph Riplinger    : Optimizer, TS searches, QM/MM, DLPNO-CCSD(T), (RO)-DLPNO pert. Triples
   Tobias Risthaus        : Range-separated hybrids, TD-DFT gradient, RPA, STAB
   Michael Roemelt        : Original ROCIS implementation
   Masaaki Saitow         : Open-shell DLPNO-CCSD energy and density
   Barbara Sandhoefer     : DKH picture change effects
   Avijit Sen             : IP-ROCIS
   Kantharuban Sivalingam : CASSCF convergence, NEVPT2, FIC-MRCI
   Bernardo de Souza      : ESD, SOC TD-DFT
   Georgi Stoychev        : AutoAux, RI-MP2 NMR, DLPNO-MP2 response
   Willem Van den Heuvel  : Paramagnetic NMR
   Boris Wezisla          : Elementary symmetry handling
   Frank Wennmohs         : Technical directorship


 We gratefully acknowledge several colleagues who have allowed us to
 interface, adapt or use parts of their codes:
   Stefan Grimme, W. Hujo, H. Kruse, P. Pracht,  : VdW corrections, initial TS optimization,
                  C. Bannwarth, S. Ehlert          DFT functionals, gCP, sTDA/sTD-DF
   Ed Valeev, F. Pavosevic, A. Kumar             : LibInt (2-el integral package), F12 methods
   Garnet Chan, S. Sharma, J. Yang, R. Olivares  : DMRG
   Ulf Ekstrom                                   : XCFun DFT Library
   Mihaly Kallay                                 : mrcc  (arbitrary order and MRCC methods)
   Jiri Pittner, Ondrej Demel                    : Mk-CCSD
   Frank Weinhold                                : gennbo (NPA and NBO analysis)
   Christopher J. Cramer and Donald G. Truhlar   : smd solvation model
   Lars Goerigk                                  : TD-DFT with DH, B97 family of functionals
   V. Asgeirsson, H. Jonsson                     : NEB implementation
   FAccTs GmbH                                   : IRC, NEB, NEB-TS, DLPNO-Multilevel, CI-OPT
                                                   MM, QMMM, 2- and 3-layer-ONIOM, Crystal-QMMM,
                                                   LR-CPCM, SF, NACMEs, symmetry and pop. for TD-DFT,
                                                   nearIR, NL-DFT gradient (VV10), updates on ESD,
                                                   ML-optimized integration grids
   S Lehtola, MJT Oliveira, MAL Marques          : LibXC Library
   Liviu Ungur et al                             : ANISO software


 Your calculation uses the libint2 library for the computation of 2-el integrals
 For citations please refer to: http://libint.valeyev.net

 Your ORCA version has been built with support for libXC version: 5.1.0
 For citations please refer to: https://tddft.org/programs/libxc/

 This ORCA versions uses:
   CBLAS   interface :  Fast vector & matrix operations
   LAPACKE interface :  Fast linear algebra routines
   SCALAPACK package :  Parallel linear algebra routines
   Shared memory     :  Shared parallel matrices
   BLAS/LAPACK       :  OpenBLAS 0.3.15  USE64BITINT DYNAMIC_ARCH NO_AFFINITY Zen SINGLE_THREADED
        Core in use  :  Zen
   Copyright (c) 2011-2014, The OpenBLAS Project


Your calculation utilizes the atom-pairwise dispersion correction
with the zero-damping scheme (D30)
Cite in your paper:
S.Grimme, J.Antony, S.Ehrlich and H.Krieg, J.Chem.Phys., 132, (2010), 154104 
   

XCFun DFT library Copyright 2009-2010 Ulf Ekstrom and contributors.
See http://admol.org/xcfun for more information.
This is free software; see the source code for copying conditions.
There is ABSOLUTELY NO WARRANTY; not even for MERCHANTABILITY or FITNESS FOR A PARTICULAR PURPOSE.
For details see the documentation.
Scientific users of this library should cite U. Ekstrom, L. Visscher, R. Bast, A. J. Thorvaldsen and K. Ruud;
J.Chem.Theor.Comp. 2010, DOI: 10.1021/ct100117s
XCFun Version 0.99 

================================================================================

----- Orbital basis set information -----
Your calculation utilizes the basis: def2-TZVPP
   F. Weigend and R. Ahlrichs, Phys. Chem. Chem. Phys. 7, 3297 (2005).

----- AuxJ basis set information -----
Your calculation utilizes the auxiliary basis: def2/J
   F. Weigend, Phys. Chem. Chem. Phys. 8, 1057 (2006).

================================================================================
                                        WARNINGS
                       Please study these warnings very carefully!
================================================================================


WARNING: Geometry Optimization
  ===> : Switching off AutoStart
         For restart on a previous wavefunction, please use MOREAD

INFO   : the flag for use of the SHARK integral package has been found!

================================================================================
                                       INPUT FILE
================================================================================
NAME = Fluoxetine_55.inp
|  1> ! wB97X-D3 TightOpt Freq def2-TZVPP def2/J RIJCOSX TightSCF defgrid3 CHELPG
|  2> %maxcore 3200
|  3> 
|  4> %pal nprocs 8 
|  5> end
|  6> 
|  7> %chelpg
|  8> grid 0.1
|  9> rmax 3.0
| 10> end
| 11> 
| 12> 
| 13> *xyz 1 1
| 14>  C    -4.5590378282    2.4302052239    -1.2702106638
| 15>  N    -4.1256911402    1.4953897968    -0.2182632260
| 16>  C    -3.0813654166    2.0521816983    0.6800800940
| 17>  C    -2.5501965372    0.9987575550    1.6453106380
| 18>  C    -1.7028479988    -0.0776246306    0.9213376787
| 19>  C    -2.5811058556    -1.0078589073    0.1019634581
| 20>  C    -3.3174168943    -2.0010550688    0.7370954199
| 21>  C    -4.1425067936    -2.8346818577    0.0020074041
| 22>  C    -4.2444306739    -2.6844418151    -1.3728396002
| 23>  C    -3.5099209741    -1.7032401810    -2.0156693185
| 24>  C    -2.6854150821    -0.8589982614    -1.2831667836
| 25>  O    -0.7771080693    0.5879598128    0.0835280940
| 26>  C    0.5781972708    0.4135735506    0.1987115185
| 27>  C    1.2373679101    -0.2359588484    1.2334117681
| 28>  C    2.6190589894    -0.3179264102    1.2255491185
| 29>  C    3.3472642635    0.2538671240    0.1951452932
| 30>  C    2.6936765896    0.9092838005    -0.8416206879
| 31>  C    1.3184743689    0.9877424745    -0.8359181640
| 32>  C    4.8463346146    0.1362531050    0.1718443340
| 33>  F    5.4331272879    1.2151434116    -0.3642342529
| 34>  F    5.3696024203    -0.0263358388    1.3933529408
| 35>  F    5.2488159890    -0.9190635241    -0.5604163837
| 36>  H    -4.9621742150    3.3391739523    -0.8271922434
| 37>  H    -5.3252737974    1.9692897912    -1.8897334390
| 38>  H    -3.7102372743    2.6936370517    -1.8978952831
| 39>  H    -3.7186254056    0.6194743257    -0.6499186933
| 40>  H    -3.5001372481    2.8981378859    1.2281640235
| 41>  H    -2.2542283078    2.4049725262    0.0602671020
| 42>  H    -3.3616445017    0.5180716783    2.1932270199
| 43>  H    -1.9113917592    1.5090950110    2.3670033893
| 44>  H    -1.1994734826    -0.6768028059    1.6843052876
| 45>  H    -3.2264308906    -2.1367882613    1.8044392579
| 46>  H    -4.6955511543    -3.6140930620    0.5016977220
| 47>  H    -4.8777148140    -3.3455790666    -1.9423501588
| 48>  H    -3.5622607869    -1.6001126758    -3.0883865272
| 49>  H    -2.0514210375    -0.1449489473    -1.7911365363
| 50>  H    0.7095143066    -0.6848046569    2.0597134659
| 51>  H    3.1287491849    -0.8229782444    2.0310100291
| 52>  H    3.2615821769    1.3554137462    -1.6426787245
| 53>  H    0.7958070571    1.4938086202    -1.6317720346
| 54>  H    -4.9340594692    1.2106573891    0.3451691250
| 55> *
| 56> 
| 57> 
| 58>                          ****END OF INPUT****
================================================================================

                       *****************************
                       * Geometry Optimization Run *
                       *****************************

Geometry optimization settings:
Update method            Update   .... BFGS
Choice of coordinates    CoordSys .... Z-matrix Internals
Initial Hessian          InHess   .... Almoef's Model

Convergence Tolerances:
Energy Change            TolE     ....  1.0000e-06 Eh
Max. Gradient            TolMAXG  ....  1.0000e-04 Eh/bohr
RMS Gradient             TolRMSG  ....  3.0000e-05 Eh/bohr
Max. Displacement        TolMAXD  ....  1.0000e-03 bohr
RMS Displacement         TolRMSD  ....  6.0000e-04 bohr
Strict Convergence                ....  False
------------------------------------------------------------------------------
                        ORCA OPTIMIZATION COORDINATE SETUP
------------------------------------------------------------------------------

The optimization will be done in new redundant internal coordinates
Making redundant internal coordinates   ...  (new redundants) done
Evaluating the initial hessian          ...  (Almloef) done
Evaluating the coordinates              ...  done
Calculating the B-matrix                .... done
Calculating the G-matrix                .... done
Diagonalizing the G-matrix              .... done
Small eigenvalue found = 3.006e-03
Small eigenvalue found = 4.706e-03
Small eigenvalue found = 6.131e-03
Small eigenvalue found = 1.033e-02
Small eigenvalue found = 1.515e-02
Small eigenvalue found = 1.896e-02
The first mode is                       ....   99
The number of degrees of freedom        ....  117

    -----------------------------------------------------------------
                    Redundant Internal Coordinates


    -----------------------------------------------------------------
         Definition                    Initial Value    Approx d2E/dq
    -----------------------------------------------------------------
      1. B(N   1,C   0)                  1.4725         0.413284   
      2. B(C   2,N   1)                  1.4858         0.393554   
      3. B(C   3,C   2)                  1.5243         0.381469   
      4. B(C   4,C   3)                  1.5494         0.347838   
      5. B(C   5,C   4)                  1.5192         0.388658   
      6. B(C   6,C   5)                  1.3900         0.624891   
      7. B(C   7,C   6)                  1.3842         0.638208   
      8. B(C   8,C   7)                  1.3868         0.632226   
      9. B(C   9,C   8)                  1.3840         0.638691   
     10. B(C  10,C   9)                  1.3889         0.627267   
     11. B(C  10,C   5)                  1.3970         0.608921   
     12. B(O  11,C   4)                  1.4149         0.510694   
     13. B(C  12,O  11)                  1.3713         0.599337   
     14. B(C  13,C  12)                  1.3882         0.629022   
     15. B(C  14,C  13)                  1.3841         0.638386   
     16. B(C  15,C  14)                  1.3853         0.635757   
     17. B(C  16,C  15)                  1.3898         0.625183   
     18. B(C  17,C  16)                  1.3775         0.654276   
     19. B(C  17,C  12)                  1.3958         0.611720   
     20. B(C  18,C  15)                  1.5039         0.411231   
     21. B(F  19,C  18)                  1.3400         0.624702   
     22. B(F  20,C  18)                  1.3388         0.627607   
     23. B(F  21,C  18)                  1.3461         0.611030   
     24. B(H  22,C   0)                  1.0886         0.361982   
     25. B(H  23,C   0)                  1.0878         0.362985   
     26. B(H  24,C   0)                  1.0880         0.362693   
     27. B(H  25,N   1)                  1.0579         0.362823   
     28. B(H  26,C   2)                  1.0915         0.358100   
     29. B(H  27,C   2)                  1.0921         0.357271   
     30. B(H  28,C   3)                  1.0907         0.359119   
     31. B(H  29,C   3)                  1.0906         0.359339   
     32. B(H  30,C   4)                  1.0929         0.356230   
     33. B(H  31,C   6)                  1.0798         0.373877   
     34. B(H  32,C   7)                  1.0784         0.375723   
     35. B(H  33,C   8)                  1.0782         0.376067   
     36. B(H  34,C   9)                  1.0789         0.375042   
     37. B(H  35,C  10)                  1.0816         0.371392   
     38. B(H  36,C  13)                  1.0784         0.375828   
     39. B(H  37,C  14)                  1.0787         0.375341   
     40. B(H  38,C  16)                  1.0785         0.375588   
     41. B(H  39,C  17)                  1.0783         0.375956   
     42. B(H  40,N   1)                  1.0257         0.408510   
     43. A(N   1,C   0,H  22)          110.3864         0.328062   
     44. A(H  22,C   0,H  24)          108.7544         0.291406   
     45. A(N   1,C   0,H  24)          109.6487         0.328168   
     46. A(H  22,C   0,H  23)          108.9481         0.291443   
     47. A(H  23,C   0,H  24)          108.8767         0.291533   
     48. A(N   1,C   0,H  23)          110.1913         0.328212   
     49. A(C   0,N   1,C   2)          113.6330         0.368371   
     50. A(C   0,N   1,H  25)          110.3264         0.325400   
     51. A(C   2,N   1,H  25)          106.6490         0.322797   
     52. A(C   2,N   1,H  40)          109.0171         0.329158   
     53. A(H  25,N   1,H  40)          107.3102         0.292219   
     54. A(C   0,N   1,H  40)          109.6781         0.331832   
     55. A(N   1,C   2,H  27)          108.0733         0.324730   
     56. A(C   3,C   2,H  26)          110.5693         0.325137   
     57. A(H  26,C   2,H  27)          108.9765         0.290226   
     58. A(N   1,C   2,C   3)          111.6419         0.365628   
     59. A(N   1,C   2,H  26)          108.9272         0.324853   
     60. A(C   3,C   2,H  27)          108.5840         0.325014   
     61. A(C   2,C   3,H  29)          107.4431         0.325322   
     62. A(C   2,C   3,H  28)          111.3098         0.325289   
     63. A(C   4,C   3,H  29)          108.2978         0.320437   
     64. A(C   4,C   3,H  28)          109.5975         0.320405   
     65. A(H  28,C   3,H  29)          108.0331         0.290618   
     66. A(C   2,C   3,C   4)          112.0111         0.360235   
     67. A(C   5,C   4,H  30)          107.8830         0.325856   
     68. A(C   3,C   4,H  30)          107.8510         0.319982   
     69. A(O  11,C   4,H  30)          111.7103         0.338884   
     70. A(C   3,C   4,O  11)          107.9204         0.376366   
     71. A(C   3,C   4,C   5)          111.1755         0.361384   
     72. A(C   5,C   4,O  11)          110.2987         0.383674   
     73. A(C   4,C   5,C   6)          119.8227         0.400005   
     74. A(C   6,C   5,C  10)          119.3173         0.433272   
     75. A(C   4,C   5,C  10)          120.8419         0.398188   
     76. A(C   7,C   6,H  31)          119.9640         0.356911   
     77. A(C   5,C   6,H  31)          119.7928         0.355635   
     78. A(C   5,C   6,C   7)          120.2271         0.436952   
     79. A(C   6,C   7,H  32)          119.6609         0.357209   
     80. A(C   6,C   7,C   8)          120.3342         0.437873   
     81. A(C   8,C   7,H  32)          119.9977         0.356638   
     82. A(C   9,C   8,H  33)          120.0732         0.357311   
     83. A(C   7,C   8,H  33)          120.0266         0.356694   
     84. A(C   7,C   8,C   9)          119.8857         0.437932   
     85. A(C  10,C   9,H  34)          119.6729         0.356052   
     86. A(C   8,C   9,H  34)          120.2524         0.357145   
     87. A(C   8,C   9,C  10)          120.0675         0.437311   
     88. A(C   9,C  10,H  35)          120.1033         0.355462   
     89. A(C   5,C  10,H  35)          119.4877         0.353677   
     90. A(C   5,C  10,C   9)          120.1628         0.433568   
     91. A(C   4,O  11,C  12)          122.4853         0.411351   
     92. A(C  13,C  12,C  17)          119.5480         0.434144   
     93. A(O  11,C  12,C  17)          114.1801         0.427579   
     94. A(O  11,C  12,C  13)          126.2573         0.429723   
     95. A(C  12,C  13,H  36)          122.2399         0.356348   
     96. A(C  12,C  13,C  14)          119.8337         0.437494   
     97. A(C  14,C  13,H  36)          117.9261         0.357243   
     98. A(C  13,C  14,C  15)          120.3001         0.438335   
     99. A(C  15,C  14,H  37)          120.0187         0.356914   
    100. A(C  13,C  14,H  37)          119.6793         0.357165   
    101. A(C  16,C  15,C  18)          119.6098         0.404038   
    102. A(C  14,C  15,C  18)          120.2152         0.405236   
    103. A(C  14,C  15,C  16)          120.1534         0.436686   
    104. A(C  15,C  16,C  17)          119.5557         0.438953   
    105. A(C  17,C  16,H  38)          120.3450         0.358701   
    106. A(C  15,C  16,H  38)          120.0990         0.355939   
    107. A(C  12,C  17,C  16)          120.6071         0.437233   
    108. A(C  16,C  17,H  39)          120.5050         0.358761   
    109. A(C  12,C  17,H  39)          118.8879         0.354686   
    110. A(F  20,C  18,F  21)          106.5151         0.424450   
    111. A(F  19,C  18,F  21)          106.4187         0.424098   
    112. A(C  15,C  18,F  21)          111.5799         0.398095   
    113. A(F  19,C  18,F  20)          106.9556         0.426134   
    114. A(C  15,C  18,F  20)          112.6420         0.399973   
    115. A(C  15,C  18,F  19)          112.3169         0.399647   
    116. D(C   2,N   1,C   0,H  24)     60.4858         0.015602   
    117. D(H  25,N   1,C   0,H  24)    -59.2234         0.015602   
    118. D(H  25,N   1,C   0,H  23)     60.6004         0.015602   
    119. D(H  25,N   1,C   0,H  22)   -179.0177         0.015602   
    120. D(H  40,N   1,C   0,H  24)   -177.2226         0.015602   
    121. D(H  40,N   1,C   0,H  22)     62.9831         0.015602   
    122. D(H  40,N   1,C   0,H  23)    -57.3987         0.015602   
    123. D(C   2,N   1,C   0,H  22)    -59.3085         0.015602   
    124. D(C   2,N   1,C   0,H  23)   -179.6903         0.015602   
    125. D(H  26,C   2,N   1,H  40)    -58.3884         0.014162   
    126. D(H  26,C   2,N   1,H  25)   -173.9551         0.014162   
    127. D(H  26,C   2,N   1,C   0)     64.2679         0.014162   
    128. D(H  27,C   2,N   1,H  25)     67.7824         0.014162   
    129. D(C   3,C   2,N   1,C   0)   -173.3443         0.014162   
    130. D(C   3,C   2,N   1,H  40)     63.9994         0.014162   
    131. D(H  27,C   2,N   1,H  40)   -176.6508         0.014162   
    132. D(C   3,C   2,N   1,H  25)    -51.5673         0.014162   
    133. D(H  27,C   2,N   1,C   0)    -53.9945         0.014162   
    134. D(H  29,C   3,C   2,H  26)    -49.8812         0.011593   
    135. D(H  29,C   3,C   2,N   1)   -171.3224         0.011593   
    136. D(H  28,C   3,C   2,H  27)   -172.2788         0.011593   
    137. D(H  28,C   3,C   2,H  26)     68.2095         0.011593   
    138. D(C   4,C   3,C   2,H  27)    -49.1843         0.011593   
    139. D(H  28,C   3,C   2,N   1)    -53.2317         0.011593   
    140. D(C   4,C   3,C   2,H  26)   -168.6961         0.011593   
    141. D(H  29,C   3,C   2,H  27)     69.6305         0.011593   
    142. D(C   4,C   3,C   2,N   1)     69.8628         0.011593   
    143. D(O  11,C   4,C   3,C   2)     48.2518         0.009758   
    144. D(C   5,C   4,C   3,H  29)    168.8603         0.009758   
    145. D(C   5,C   4,C   3,H  28)     51.2255         0.009758   
    146. D(C   5,C   4,C   3,C   2)    -72.8311         0.009758   
    147. D(H  30,C   4,C   3,H  29)     50.7792         0.009758   
    148. D(H  30,C   4,C   3,H  28)    -66.8556         0.009758   
    149. D(H  30,C   4,C   3,C   2)    169.0878         0.009758   
    150. D(O  11,C   4,C   3,H  29)    -70.0568         0.009758   
    151. D(O  11,C   4,C   3,H  28)    172.3084         0.009758   
    152. D(C  10,C   5,C   4,H  30)   -140.1741         0.011242   
    153. D(C  10,C   5,C   4,O  11)    -17.9130         0.011242   
    154. D(C  10,C   5,C   4,C   3)    101.7641         0.011242   
    155. D(C   6,C   5,C   4,H  30)     41.3871         0.011242   
    156. D(C   6,C   5,C   4,O  11)    163.6482         0.011242   
    157. D(C   6,C   5,C   4,C   3)    -76.6746         0.011242   
    158. D(H  31,C   6,C   5,C  10)    178.6844         0.027047   
    159. D(H  31,C   6,C   5,C   4)     -2.8530         0.027047   
    160. D(C   7,C   6,C   5,C  10)      0.1439         0.027047   
    161. D(C   7,C   6,C   5,C   4)    178.6066         0.027047   
    162. D(H  32,C   7,C   6,H  31)      0.3239         0.028289   
    163. D(H  32,C   7,C   6,C   5)    178.8618         0.028289   
    164. D(C   8,C   7,C   6,H  31)   -178.7011         0.028289   
    165. D(C   8,C   7,C   6,C   5)     -0.1632         0.028289   
    166. D(H  33,C   8,C   7,H  32)      0.1012         0.027727   
    167. D(H  33,C   8,C   7,C   6)    179.1229         0.027727   
    168. D(C   9,C   8,C   7,H  32)   -178.5110         0.027727   
    169. D(C   9,C   8,C   7,C   6)      0.5107         0.027727   
    170. D(H  34,C   9,C   8,H  33)     -0.4297         0.028334   
    171. D(H  34,C   9,C   8,C   7)    178.1819         0.028334   
    172. D(C  10,C   9,C   8,H  33)   -179.4515         0.028334   
    173. D(C  10,C   9,C   8,C   7)     -0.8399         0.028334   
    174. D(C   5,C  10,C   9,C   8)      0.8245         0.027266   
    175. D(H  35,C  10,C   5,C   6)   -174.7810         0.025603   
    176. D(H  35,C  10,C   5,C   4)      6.7724         0.025603   
    177. D(C   9,C  10,C   5,C   6)     -0.4738         0.025603   
    178. D(C   9,C  10,C   5,C   4)   -178.9204         0.025603   
    179. D(H  35,C  10,C   9,H  34)     -3.9310         0.027266   
    180. D(H  35,C  10,C   9,C   8)    175.0965         0.027266   
    181. D(C   5,C  10,C   9,H  34)   -178.2030         0.027266   
    182. D(C  12,O  11,C   4,H  30)      3.5231         0.020649   
    183. D(C  12,O  11,C   4,C   5)   -116.4555         0.020649   
    184. D(C  12,O  11,C   4,C   3)    121.9168         0.020649   
    185. D(C  17,C  12,O  11,C   4)    170.7288         0.026231   
    186. D(C  13,C  12,O  11,C   4)    -10.6756         0.026231   
    187. D(H  36,C  13,C  12,C  17)    179.2919         0.027428   
    188. D(H  36,C  13,C  12,O  11)      0.7646         0.027428   
    189. D(C  14,C  13,C  12,C  17)     -0.5029         0.027428   
    190. D(C  14,C  13,C  12,O  11)   -179.0302         0.027428   
    191. D(H  37,C  14,C  13,H  36)      0.1775         0.028306   
    192. D(H  37,C  14,C  13,C  12)    179.9810         0.028306   
    193. D(C  15,C  14,C  13,H  36)   -179.3197         0.028306   
    194. D(C  15,C  14,C  13,C  12)      0.4838         0.028306   
    195. D(C  18,C  15,C  14,H  37)      1.9221         0.028058   
    196. D(C  18,C  15,C  14,C  13)   -178.5824         0.028058   
    197. D(C  16,C  15,C  14,H  37)   -179.7763         0.028058   
    198. D(C  16,C  15,C  14,C  13)     -0.2808         0.028058   
    199. D(H  38,C  16,C  15,C  18)     -1.7781         0.027074   
    200. D(H  38,C  16,C  15,C  14)    179.9100         0.027074   
    201. D(C  17,C  16,C  15,C  18)    178.4106         0.027074   
    202. D(C  17,C  16,C  15,C  14)      0.0986         0.027074   
    203. D(H  39,C  17,C  16,C  15)    179.9100         0.029833   
    204. D(C  12,C  17,C  16,H  38)   -179.9330         0.029833   
    205. D(C  12,C  17,C  16,C  15)     -0.1221         0.029833   
    206. D(H  39,C  17,C  12,C  13)   -179.7067         0.025852   
    207. D(H  39,C  17,C  12,O  11)     -1.0084         0.025852   
    208. D(C  16,C  17,C  12,C  13)      0.3249         0.025852   
    209. D(H  39,C  17,C  16,H  38)      0.0991         0.029833   
    210. D(C  16,C  17,C  12,O  11)    179.0232         0.025852   
    211. D(F  21,C  18,C  15,C  16)    -84.5205         0.012522   
    212. D(F  21,C  18,C  15,C  14)     93.7904         0.012522   
    213. D(F  20,C  18,C  15,C  16)    155.7304         0.012522   
    214. D(F  20,C  18,C  15,C  14)    -25.9588         0.012522   
    215. D(F  19,C  18,C  15,C  16)     34.8808         0.012522   
    216. D(F  19,C  18,C  15,C  14)   -146.8083         0.012522   
    -----------------------------------------------------------------

Number of atoms                         .... 41
Number of degrees of freedom            .... 216

         *************************************************************
         *                GEOMETRY OPTIMIZATION CYCLE   1            *
         *************************************************************
---------------------------------
CARTESIAN COORDINATES (ANGSTROEM)
---------------------------------
  C     -4.559038    2.430205   -1.270211
  N     -4.125691    1.495390   -0.218263
  C     -3.081365    2.052182    0.680080
  C     -2.550197    0.998758    1.645311
  C     -1.702848   -0.077625    0.921338
  C     -2.581106   -1.007859    0.101963
  C     -3.317417   -2.001055    0.737095
  C     -4.142507   -2.834682    0.002007
  C     -4.244431   -2.684442   -1.372840
  C     -3.509921   -1.703240   -2.015669
  C     -2.685415   -0.858998   -1.283167
  O     -0.777108    0.587960    0.083528
  C      0.578197    0.413574    0.198712
  C      1.237368   -0.235959    1.233412
  C      2.619059   -0.317926    1.225549
  C      3.347264    0.253867    0.195145
  C      2.693677    0.909284   -0.841621
  C      1.318474    0.987742   -0.835918
  C      4.846335    0.136253    0.171844
  F      5.433127    1.215143   -0.364234
  F      5.369602   -0.026336    1.393353
  F      5.248816   -0.919064   -0.560416
  H     -4.962174    3.339174   -0.827192
  H     -5.325274    1.969290   -1.889733
  H     -3.710237    2.693637   -1.897895
  H     -3.718625    0.619474   -0.649919
  H     -3.500137    2.898138    1.228164
  H     -2.254228    2.404973    0.060267
  H     -3.361645    0.518072    2.193227
  H     -1.911392    1.509095    2.367003
  H     -1.199473   -0.676803    1.684305
  H     -3.226431   -2.136788    1.804439
  H     -4.695551   -3.614093    0.501698
  H     -4.877715   -3.345579   -1.942350
  H     -3.562261   -1.600113   -3.088387
  H     -2.051421   -0.144949   -1.791137
  H      0.709514   -0.684805    2.059713
  H      3.128749   -0.822978    2.031010
  H      3.261582    1.355414   -1.642679
  H      0.795807    1.493809   -1.631772
  H     -4.934059    1.210657    0.345169

----------------------------
CARTESIAN COORDINATES (A.U.)
----------------------------
  NO LB      ZA    FRAG     MASS         X           Y           Z
   0 C     6.0000    0    12.011   -8.615333    4.592422   -2.400350
   1 N     7.0000    0    14.007   -7.796426    2.825877   -0.412458
   2 C     6.0000    0    12.011   -5.822937    3.878061    1.285165
   3 C     6.0000    0    12.011   -4.819173    1.887378    3.109187
   4 C     6.0000    0    12.011   -3.217916   -0.146689    1.741076
   5 C     6.0000    0    12.011   -4.877583   -1.904577    0.192683
   6 C     6.0000    0    12.011   -6.269009   -3.781446    1.392908
   7 C     6.0000    0    12.011   -7.828203   -5.356772    0.003793
   8 C     6.0000    0    12.011   -8.020812   -5.072860   -2.594291
   9 C     6.0000    0    12.011   -6.632789   -3.218657   -3.809063
  10 C     6.0000    0    12.011   -5.074699   -1.623271   -2.424834
  11 O     8.0000    0    15.999   -1.468521    1.111083    0.157845
  12 C     6.0000    0    12.011    1.092634    0.781541    0.375510
  13 C     6.0000    0    12.011    2.338286   -0.445898    2.330810
  14 C     6.0000    0    12.011    4.949304   -0.600794    2.315952
  15 C     6.0000    0    12.011    6.325413    0.479739    0.368771
  16 C     6.0000    0    12.011    5.090311    1.718297   -1.590433
  17 C     6.0000    0    12.011    2.491555    1.866563   -1.579656
  18 C     6.0000    0    12.011    9.158245    0.257481    0.324739
  19 F     9.0000    0    18.998   10.267123    2.296288   -0.688303
  20 F     9.0000    0    18.998   10.147078   -0.049768    2.633055
  21 F     9.0000    0    18.998    9.918825   -1.736778   -1.059033
  22 H     1.0000    0     1.008   -9.377150    6.310124   -1.563167
  23 H     1.0000    0     1.008  -10.063309    3.721418   -3.571079
  24 H     1.0000    0     1.008   -7.011332    5.090236   -3.586502
  25 H     1.0000    0     1.008   -7.027184    1.170637   -1.228168
  26 H     1.0000    0     1.008   -6.614301    5.476687    2.320894
  27 H     1.0000    0     1.008   -4.259874    4.544739    0.113888
  28 H     1.0000    0     1.008   -6.352587    0.979014    4.144598
  29 H     1.0000    0     1.008   -3.612007    2.851776    4.472988
  30 H     1.0000    0     1.008   -2.266676   -1.278972    3.182876
  31 H     1.0000    0     1.008   -6.097071   -4.037945    3.409896
  32 H     1.0000    0     1.008   -8.873306   -6.829646    0.948071
  33 H     1.0000    0     1.008   -9.217545   -6.322228   -3.670510
  34 H     1.0000    0     1.008   -6.731697   -3.023775   -5.836205
  35 H     1.0000    0     1.008   -3.876624   -0.273914   -3.384758
  36 H     1.0000    0     1.008    1.340788   -1.294093    3.892294
  37 H     1.0000    0     1.008    5.912479   -1.555203    3.838053
  38 H     1.0000    0     1.008    6.163497    2.561361   -3.104213
  39 H     1.0000    0     1.008    1.503857    2.822889   -3.083602
  40 H     1.0000    0     1.008   -9.324021    2.287811    0.652275

--------------------------------
INTERNAL COORDINATES (ANGSTROEM)
--------------------------------
 C      0   0   0     0.000000000000     0.00000000     0.00000000
 N      1   0   0     1.472502172032     0.00000000     0.00000000
 C      2   1   0     1.485817673585   113.63303618     0.00000000
 C      3   2   1     1.524307320458   111.64189307   186.65569942
 C      4   3   2     1.549430540813   112.01105164    69.86276583
 C      5   4   3     1.519225719228   111.17549352   287.16887227
 C      6   5   4     1.389958693570   119.82266484   283.32536969
 C      7   6   5     1.384218680726   120.22708754   178.60656634
 C      8   7   6     1.386782186577   120.33421720   359.83682727
 C      9   8   7     1.384012714028   119.88569780     0.51065666
 C     10   9   8     1.388925609379   120.06745881   359.16008501
 O      5   4   3     1.414892917709   107.92036295    48.25180029
 C     12   5   4     1.371324306875   122.48528210   121.91675948
 C     13  12   5     1.388165291162   126.25730124   349.32436593
 C     14  13  12     1.384142601419   119.83368963   180.96984414
 C     15  14  13     1.385266331856   120.30012278     0.48382693
 C     16  15  14     1.389831488661   120.15342353   359.71924288
 C     17  16  15     1.377450336717   119.55567852     0.09863001
 C     16  15  14     1.503857676016   120.21516162   181.41758226
 F     19  16  15     1.340041113715   112.31690723   213.19171671
 F     19  16  15     1.338778412440   112.64197577   334.04124824
 F     19  16  15     1.346064709841   111.57989591    93.79039436
 H      1   2   3     1.088580918621   110.38644005   300.69148312
 H      1   2   3     1.087827681937   110.19130354   180.30966474
 H      1   2   3     1.088047190845   109.64867765    60.48582104
 H      2   1   3     1.057949368943   110.32640569   240.29078246
 H      3   2   1     1.091516244484   108.92716952    64.26790001
 H      3   2   1     1.092147110080   108.07334401   306.00545641
 H      4   3   2     1.090742441048   111.30978869   306.76828944
 H      4   3   2     1.090576127866   107.44312822   188.67759064
 H      5   4   3     1.092940968921   107.85099973   169.08780496
 H      7   6   5     1.079779987281   119.79281672   357.14699524
 H      8   7   6     1.078438827238   119.66088971   178.86182295
 H      9   8   7     1.078189938638   120.02655527   179.12287734
 H     10   9   8     1.078933245467   120.25244718   178.18185512
 H     11  10   9     1.081595183612   120.10334695   175.09645811
 H     14  13  12     1.078362871358   122.23989936     0.76463467
 H     15  14  13     1.078716241243   119.67929640   179.98104770
 H     17  16  15     1.078537279160   120.09900714   179.90998973
 H     18  17  16     1.078270581068   120.50499673   179.90996034
 H      2   1   3     1.025664620370   109.67812072   122.29158771

---------------------------
INTERNAL COORDINATES (A.U.)
---------------------------
 C      0   0   0     0.000000000000     0.00000000     0.00000000
 N      1   0   0     2.782625836745     0.00000000     0.00000000
 C      2   1   0     2.807788488015   113.63303618     0.00000000
 C      3   2   1     2.880523379596   111.64189307   186.65569942
 C      4   3   2     2.927999385670   112.01105164    69.86276583
 C      5   4   3     2.870920544950   111.17549352   287.16887227
 C      6   5   4     2.626641268310   119.82266484   283.32536969
 C      7   6   5     2.615794216030   120.22708754   178.60656634
 C      8   7   6     2.620638540032   120.33421720   359.83682727
 C      9   8   7     2.615404995378   119.88569780     0.51065666
 C     10   9   8     2.624689022115   120.06745881   359.16008501
 O      5   4   3     2.673760123294   107.92036295    48.25180029
 C     12   5   4     2.591427380784   122.48528210   121.91675948
 C     13  12   5     2.623252228912   126.25730124   349.32436593
 C     14  13  12     2.615650446976   119.83368963   180.96984414
 C     15  14  13     2.617773989749   120.30012278     0.48382693
 C     16  15  14     2.626400885870   120.15342353   359.71924288
 C     17  16  15     2.603003899473   119.55567852     0.09863001
 C     16  15  14     2.841879152065   120.21516162   181.41758226
 F     19  16  15     2.532310713116   112.31690723   213.19171671
 F     19  16  15     2.529924553517   112.64197577   334.04124824
 F     19  16  15     2.543693660136   111.57989591    93.79039436
 H      1   2   3     2.057119810805   110.38644005   300.69148312
 H      1   2   3     2.055696399759   110.19130354   180.30966474
 H      1   2   3     2.056111211479   109.64867765    60.48582104
 H      2   1   3     1.999234570858   110.32640569   240.29078246
 H      3   2   1     2.062666772801   108.92716952    64.26790001
 H      3   2   1     2.063858936005   108.07334401   306.00545641
 H      4   3   2     2.061204496226   111.30978869   306.76828944
 H      4   3   2     2.060890209859   107.44312822   188.67759064
 H      5   4   3     2.065359111803   107.85099973   169.08780496
 H      7   6   5     2.040488460850   119.79281672   357.14699524
 H      8   7   6     2.037954035666   119.66088971   178.86182295
 H      9   8   7     2.037483704375   120.02655527   179.12287734
 H     10   9   8     2.038888350715   120.25244718   178.18185512
 H     11  10   9     2.043918684795   120.10334695   175.09645811
 H     14  13  12     2.037810499855   122.23989936     0.76463467
 H     15  14  13     2.038478272163   119.67929640   179.98104770
 H     17  16  15     2.038140082837   120.09900714   179.90998973
 H     18  17  16     2.037636096483   120.50499673   179.90996034
 H      2   1   3     1.938225237751   109.67812072   122.29158771

---------------------
BASIS SET INFORMATION
---------------------
There are 5 groups of distinct atoms

 Group   1 Type C   : 11s6p2d1f contracted to 5s3p2d1f pattern {62111/411/11/1}
 Group   2 Type N   : 11s6p2d1f contracted to 5s3p2d1f pattern {62111/411/11/1}
 Group   3 Type O   : 11s6p2d1f contracted to 5s3p2d1f pattern {62111/411/11/1}
 Group   4 Type F   : 11s6p2d1f contracted to 5s3p2d1f pattern {62111/411/11/1}
 Group   5 Type H   : 5s2p1d contracted to 3s2p1d pattern {311/11/1}

Atom   0C    basis set group =>   1
Atom   1N    basis set group =>   2
Atom   2C    basis set group =>   1
Atom   3C    basis set group =>   1
Atom   4C    basis set group =>   1
Atom   5C    basis set group =>   1
Atom   6C    basis set group =>   1
Atom   7C    basis set group =>   1
Atom   8C    basis set group =>   1
Atom   9C    basis set group =>   1
Atom  10C    basis set group =>   1
Atom  11O    basis set group =>   3
Atom  12C    basis set group =>   1
Atom  13C    basis set group =>   1
Atom  14C    basis set group =>   1
Atom  15C    basis set group =>   1
Atom  16C    basis set group =>   1
Atom  17C    basis set group =>   1
Atom  18C    basis set group =>   1
Atom  19F    basis set group =>   4
Atom  20F    basis set group =>   4
Atom  21F    basis set group =>   4
Atom  22H    basis set group =>   5
Atom  23H    basis set group =>   5
Atom  24H    basis set group =>   5
Atom  25H    basis set group =>   5
Atom  26H    basis set group =>   5
Atom  27H    basis set group =>   5
Atom  28H    basis set group =>   5
Atom  29H    basis set group =>   5
Atom  30H    basis set group =>   5
Atom  31H    basis set group =>   5
Atom  32H    basis set group =>   5
Atom  33H    basis set group =>   5
Atom  34H    basis set group =>   5
Atom  35H    basis set group =>   5
Atom  36H    basis set group =>   5
Atom  37H    basis set group =>   5
Atom  38H    basis set group =>   5
Atom  39H    basis set group =>   5
Atom  40H    basis set group =>   5
---------------------------------
AUXILIARY/J BASIS SET INFORMATION
---------------------------------
There are 5 groups of distinct atoms

 Group   1 Type C   : 12s5p4d2f1g contracted to 6s4p3d1f1g pattern {711111/2111/211/2/1}
 Group   2 Type N   : 12s5p4d2f1g contracted to 6s4p3d1f1g pattern {711111/2111/211/2/1}
 Group   3 Type O   : 12s5p4d2f1g contracted to 6s4p3d1f1g pattern {711111/2111/211/2/1}
 Group   4 Type F   : 12s5p4d2f1g contracted to 6s4p3d1f1g pattern {711111/2111/211/2/1}
 Group   5 Type H   : 5s2p1d contracted to 3s1p1d pattern {311/2/1}

Atom   0C    basis set group =>   1
Atom   1N    basis set group =>   2
Atom   2C    basis set group =>   1
Atom   3C    basis set group =>   1
Atom   4C    basis set group =>   1
Atom   5C    basis set group =>   1
Atom   6C    basis set group =>   1
Atom   7C    basis set group =>   1
Atom   8C    basis set group =>   1
Atom   9C    basis set group =>   1
Atom  10C    basis set group =>   1
Atom  11O    basis set group =>   3
Atom  12C    basis set group =>   1
Atom  13C    basis set group =>   1
Atom  14C    basis set group =>   1
Atom  15C    basis set group =>   1
Atom  16C    basis set group =>   1
Atom  17C    basis set group =>   1
Atom  18C    basis set group =>   1
Atom  19F    basis set group =>   4
Atom  20F    basis set group =>   4
Atom  21F    basis set group =>   4
Atom  22H    basis set group =>   5
Atom  23H    basis set group =>   5
Atom  24H    basis set group =>   5
Atom  25H    basis set group =>   5
Atom  26H    basis set group =>   5
Atom  27H    basis set group =>   5
Atom  28H    basis set group =>   5
Atom  29H    basis set group =>   5
Atom  30H    basis set group =>   5
Atom  31H    basis set group =>   5
Atom  32H    basis set group =>   5
Atom  33H    basis set group =>   5
Atom  34H    basis set group =>   5
Atom  35H    basis set group =>   5
Atom  36H    basis set group =>   5
Atom  37H    basis set group =>   5
Atom  38H    basis set group =>   5
Atom  39H    basis set group =>   5
Atom  40H    basis set group =>   5


           ************************************************************
           *        Program running with 8 parallel MPI-processes     *
           *              working on a common directory               *
           ************************************************************
------------------------------------------------------------------------------
                           ORCA GTO INTEGRAL CALCULATION
                           -- RI-GTO INTEGRALS CHOSEN --
------------------------------------------------------------------------------
------------------------------------------------------------------------------
                   ___                                                        
                  /   \      - P O W E R E D   B Y -                         
                 /     \                                                     
                 |  |  |   _    _      __       _____    __    __             
                 |  |  |  | |  | |    /  \     |  _  \  |  |  /  |          
                  \  \/   | |  | |   /    \    | | | |  |  | /  /          
                 / \  \   | |__| |  /  /\  \   | |_| |  |  |/  /          
                |  |  |   |  __  | /  /__\  \  |    /   |      \           
                |  |  |   | |  | | |   __   |  |    \   |  |\   \          
                \     /   | |  | | |  |  |  |  | |\  \  |  | \   \       
                 \___/    |_|  |_| |__|  |__|  |_| \__\ |__|  \__/        
                                                                              
                      - O R C A' S   B I G   F R I E N D -                    
                                      &                                       
                       - I N T E G R A L  F E E D E R -                       
                                                                              
 v1 FN, 2020, v2 2021                                                         
------------------------------------------------------------------------------


Reading SHARK input file Fluoxetine_55.SHARKINP.tmp ... ok
----------------------
SHARK INTEGRAL PACKAGE
----------------------

Number of atoms                             ...     41
Number of basis functions                   ...    948
Number of shells                            ...    356
Maximum angular momentum                    ...      3
Integral batch strategy                     ... SHARK/LIBINT Hybrid
RI-J (if used) integral strategy            ... SPLIT-RIJ (Revised 2003 algorithm where possible)
Printlevel                                  ...      1
Contraction scheme used                     ... SEGMENTED contraction
Coulomb Range Separation                    ... NOT USED
Exchange Range Separation                   ... Long Range
   Mu parameter                             ...  0.250000
   Scaling (regular/separated)              ...  0.195728  0.804272
Finite Nucleus Model                        ... NOT USED
Auxiliary Coulomb fitting basis             ... AVAILABLE
   # of basis functions in Aux-J            ...   1287
   # of shells in Aux-J                     ...    425
   Maximum angular momentum in Aux-J        ...      4
Auxiliary J/K fitting basis                 ... NOT available
Auxiliary Correlation fitting basis         ... NOT available
Auxiliary 'external' fitting basis          ... NOT available
Integral threshold                          ...     2.500000e-11
Primitive cut-off                           ...     2.500000e-12
Primitive pair pre-selection threshold      ...     2.500000e-12

Calculating pre-screening integrals         ... done (  0.1 sec) Dimension = 356
Organizing shell pair data                  ... done (  0.3 sec)
Shell pair information
Total number of shell pairs                 ...     63546
Shell pairs after pre-screening             ...     41684
Total number of primitive shell pairs       ...    176069
Primitive shell pairs kept                  ...     79272
          la=0 lb=0:   9267 shell pairs
          la=1 lb=0:  12008 shell pairs
          la=1 lb=1:   3956 shell pairs
          la=2 lb=0:   6462 shell pairs
          la=2 lb=1:   4248 shell pairs
          la=2 lb=2:   1142 shell pairs
          la=3 lb=0:   2223 shell pairs
          la=3 lb=1:   1461 shell pairs
          la=3 lb=2:    768 shell pairs
          la=3 lb=3:    149 shell pairs

Calculating one electron integrals          ... done (  0.1 sec)
Calculating RI/J V-Matrix + Cholesky decomp.... done (  0.2 sec)
Calculating Nuclear repulsion               ... done (  0.0 sec) ENN=   1804.763217414227 Eh

SHARK setup successfully completed in   1.2 seconds

Maximum memory used throughout the entire GTOINT-calculation: 64.4 MB
[1695247010.929600] [nc30407:3473923:0]          mpool.c:42   UCX  WARN  object 0xbd7dac0 was not returned to mpool ucp_requests
[1695247010.929619] [nc30407:3473923:0]          mpool.c:42   UCX  WARN  object 0xbd7dc80 was not returned to mpool ucp_requests
[1695247010.929623] [nc30407:3473923:0]          mpool.c:42   UCX  WARN  object 0xbd7de40 was not returned to mpool ucp_requests
[1695247010.929625] [nc30407:3473923:0]          mpool.c:42   UCX  WARN  object 0xbd7e000 was not returned to mpool ucp_requests
[1695247010.929628] [nc30407:3473923:0]          mpool.c:42   UCX  WARN  object 0xbd7e1c0 was not returned to mpool ucp_requests
[1695247010.929630] [nc30407:3473923:0]          mpool.c:42   UCX  WARN  object 0xbd7e380 was not returned to mpool ucp_requests
[1695247010.929633] [nc30407:3473923:0]          mpool.c:42   UCX  WARN  object 0xbd7e540 was not returned to mpool ucp_requests
[1695247010.929635] [nc30407:3473923:0]          mpool.c:42   UCX  WARN  object 0xbd7e700 was not returned to mpool ucp_requests
[1695247010.929638] [nc30407:3473923:0]          mpool.c:42   UCX  WARN  object 0xbd7e8c0 was not returned to mpool ucp_requests
[1695247010.929640] [nc30407:3473923:0]          mpool.c:42   UCX  WARN  object 0xbd7ea80 was not returned to mpool ucp_requests
[1695247010.932042] [nc30407:3473924:0]          mpool.c:42   UCX  WARN  object 0xa57dd40 was not returned to mpool ucp_requests
[1695247010.932055] [nc30407:3473924:0]          mpool.c:42   UCX  WARN  object 0xa57df00 was not returned to mpool ucp_requests
[1695247010.932061] [nc30407:3473924:0]          mpool.c:42   UCX  WARN  object 0xa57e0c0 was not returned to mpool ucp_requests
[1695247010.932064] [nc30407:3473924:0]          mpool.c:42   UCX  WARN  object 0xa57e280 was not returned to mpool ucp_requests
[1695247010.932068] [nc30407:3473924:0]          mpool.c:42   UCX  WARN  object 0xa57e440 was not returned to mpool ucp_requests
[1695247010.932071] [nc30407:3473924:0]          mpool.c:42   UCX  WARN  object 0xa57e600 was not returned to mpool ucp_requests
[1695247010.932075] [nc30407:3473924:0]          mpool.c:42   UCX  WARN  object 0xa57e7c0 was not returned to mpool ucp_requests
[1695247010.932080] [nc30407:3473924:0]          mpool.c:42   UCX  WARN  object 0xa57e980 was not returned to mpool ucp_requests
[1695247010.932083] [nc30407:3473924:0]          mpool.c:42   UCX  WARN  object 0xa57eb40 was not returned to mpool ucp_requests
[1695247010.932087] [nc30407:3473924:0]          mpool.c:42   UCX  WARN  object 0xa57ed00 was not returned to mpool ucp_requests
[1695247010.937789] [nc30407:3473909:0]          mpool.c:42   UCX  WARN  object 0xbd36f00 was not returned to mpool ucp_requests
[1695247010.937812] [nc30407:3473909:0]          mpool.c:42   UCX  WARN  object 0xbd370c0 was not returned to mpool ucp_requests
[1695247010.937819] [nc30407:3473909:0]          mpool.c:42   UCX  WARN  object 0xbd37280 was not returned to mpool ucp_requests
[1695247010.937823] [nc30407:3473909:0]          mpool.c:42   UCX  WARN  object 0xbd37440 was not returned to mpool ucp_requests
[1695247010.937828] [nc30407:3473909:0]          mpool.c:42   UCX  WARN  object 0xbd37600 was not returned to mpool ucp_requests
[1695247010.937832] [nc30407:3473909:0]          mpool.c:42   UCX  WARN  object 0xbd377c0 was not returned to mpool ucp_requests
[1695247010.937834] [nc30407:3473909:0]          mpool.c:42   UCX  WARN  object 0xbd37980 was not returned to mpool ucp_requests
[1695247010.937837] [nc30407:3473909:0]          mpool.c:42   UCX  WARN  object 0xbd37b40 was not returned to mpool ucp_requests
[1695247010.937840] [nc30407:3473909:0]          mpool.c:42   UCX  WARN  object 0xbd37d00 was not returned to mpool ucp_requests
[1695247010.937843] [nc30407:3473909:0]          mpool.c:42   UCX  WARN  object 0xbd37ec0 was not returned to mpool ucp_requests
[1695247010.938632] [nc30407:3473906:0]          mpool.c:42   UCX  WARN  object 0xac02bc0 was not returned to mpool ucp_requests
[1695247010.938654] [nc30407:3473906:0]          mpool.c:42   UCX  WARN  object 0xac02d80 was not returned to mpool ucp_requests
[1695247010.938660] [nc30407:3473906:0]          mpool.c:42   UCX  WARN  object 0xac02f40 was not returned to mpool ucp_requests
[1695247010.938663] [nc30407:3473906:0]          mpool.c:42   UCX  WARN  object 0xac03100 was not returned to mpool ucp_requests
[1695247010.938669] [nc30407:3473906:0]          mpool.c:42   UCX  WARN  object 0xac032c0 was not returned to mpool ucp_requests
[1695247010.938672] [nc30407:3473906:0]          mpool.c:42   UCX  WARN  object 0xac03480 was not returned to mpool ucp_requests
[1695247010.938676] [nc30407:3473906:0]          mpool.c:42   UCX  WARN  object 0xac03640 was not returned to mpool ucp_requests
[1695247010.938680] [nc30407:3473906:0]          mpool.c:42   UCX  WARN  object 0xac03800 was not returned to mpool ucp_requests
[1695247010.938683] [nc30407:3473906:0]          mpool.c:42   UCX  WARN  object 0xac039c0 was not returned to mpool ucp_requests
[1695247010.938687] [nc30407:3473906:0]          mpool.c:42   UCX  WARN  object 0xac03b80 was not returned to mpool ucp_requests
[1695247010.938733] [nc30407:3473926:0]          mpool.c:42   UCX  WARN  object 0xbc4ffc0 was not returned to mpool ucp_requests
[1695247010.938746] [nc30407:3473926:0]          mpool.c:42   UCX  WARN  object 0xbc50180 was not returned to mpool ucp_requests
[1695247010.938752] [nc30407:3473926:0]          mpool.c:42   UCX  WARN  object 0xbc50340 was not returned to mpool ucp_requests
[1695247010.938755] [nc30407:3473926:0]          mpool.c:42   UCX  WARN  object 0xbc50500 was not returned to mpool ucp_requests
[1695247010.938758] [nc30407:3473926:0]          mpool.c:42   UCX  WARN  object 0xbc506c0 was not returned to mpool ucp_requests
[1695247010.938760] [nc30407:3473926:0]          mpool.c:42   UCX  WARN  object 0xbc50880 was not returned to mpool ucp_requests
[1695247010.938773] [nc30407:3473926:0]          mpool.c:42   UCX  WARN  object 0xbc50a40 was not returned to mpool ucp_requests
[1695247010.938777] [nc30407:3473926:0]          mpool.c:42   UCX  WARN  object 0xbc50c00 was not returned to mpool ucp_requests
[1695247010.938780] [nc30407:3473926:0]          mpool.c:42   UCX  WARN  object 0xbc50dc0 was not returned to mpool ucp_requests
[1695247010.938783] [nc30407:3473926:0]          mpool.c:42   UCX  WARN  object 0xbc50f80 was not returned to mpool ucp_requests
[1695247010.938811] [nc30407:3473905:0]          mpool.c:42   UCX  WARN  object 0xbb752c0 was not returned to mpool ucp_requests
[1695247010.938835] [nc30407:3473905:0]          mpool.c:42   UCX  WARN  object 0xbb75480 was not returned to mpool ucp_requests
[1695247010.938839] [nc30407:3473905:0]          mpool.c:42   UCX  WARN  object 0xbb75640 was not returned to mpool ucp_requests
[1695247010.938842] [nc30407:3473905:0]          mpool.c:42   UCX  WARN  object 0xbb759c0 was not returned to mpool ucp_requests
[1695247010.938844] [nc30407:3473905:0]          mpool.c:42   UCX  WARN  object 0xbb75b80 was not returned to mpool ucp_requests
[1695247010.938847] [nc30407:3473905:0]          mpool.c:42   UCX  WARN  object 0xbb75d40 was not returned to mpool ucp_requests
[1695247010.940930] [nc30407:3473925:0]          mpool.c:42   UCX  WARN  object 0xae483c0 was not returned to mpool ucp_requests
[1695247010.940947] [nc30407:3473925:0]          mpool.c:42   UCX  WARN  object 0xae48580 was not returned to mpool ucp_requests
[1695247010.940952] [nc30407:3473925:0]          mpool.c:42   UCX  WARN  object 0xae48740 was not returned to mpool ucp_requests
[1695247010.940955] [nc30407:3473925:0]          mpool.c:42   UCX  WARN  object 0xae48900 was not returned to mpool ucp_requests
[1695247010.940958] [nc30407:3473925:0]          mpool.c:42   UCX  WARN  object 0xae48ac0 was not returned to mpool ucp_requests
[1695247010.940961] [nc30407:3473925:0]          mpool.c:42   UCX  WARN  object 0xae48c80 was not returned to mpool ucp_requests
[1695247010.940963] [nc30407:3473925:0]          mpool.c:42   UCX  WARN  object 0xae48e40 was not returned to mpool ucp_requests
[1695247010.940966] [nc30407:3473925:0]          mpool.c:42   UCX  WARN  object 0xae49000 was not returned to mpool ucp_requests
[1695247010.940969] [nc30407:3473925:0]          mpool.c:42   UCX  WARN  object 0xae491c0 was not returned to mpool ucp_requests
[1695247010.940972] [nc30407:3473925:0]          mpool.c:42   UCX  WARN  object 0xae49380 was not returned to mpool ucp_requests


           ************************************************************
           *        Program running with 8 parallel MPI-processes     *
           *              working on a common directory               *
           ************************************************************
-------------------------------------------------------------------------------
                                 ORCA SCF
-------------------------------------------------------------------------------

------------
SCF SETTINGS
------------
Hamiltonian:
 Density Functional     Method          .... DFT(GTOs)
 Exchange Functional    Exchange        .... WB97X-D3
 Correlation Functional Correlation     .... WB97X-D3
 Gradients option       PostSCFGGA      .... off
 Hybrid DFT is turned on
   Fraction HF Exchange ScalHFX         ....  0.195728
   Scaling of DF-GGA-X  ScalDFX         ....  0.000000
   Scaling of DF-GGA-C  ScalDFC         ....  1.000000
   Scaling of DF-LDA-C  ScalLDAC        ....  1.000000
   Perturbative correction              ....  0.000000
   Density functional embedding theory  .... OFF
 Long-range corrected/Screened/Range-Separated Hybrid DFT is turned on
   Amount of maximum screened exact exchange              ....  0.804272
   Range separation parameter mu (erf(mu*r12)/r12)        ....  0.250000
 RI-approximation to the Coulomb term is turned on
   Number of AuxJ basis functions       .... 1287
   RIJ-COSX (HFX calculated with COS-X)).... on


General Settings:
 Integral files         IntName         .... Fluoxetine_55
 Hartree-Fock type      HFTyp           .... RHF
 Total Charge           Charge          ....    1
 Multiplicity           Mult            ....    1
 Number of Electrons    NEL             ....  162
 Basis Dimension        Dim             ....  948
 Nuclear Repulsion      ENuc            ....   1804.7632174142 Eh

Convergence Acceleration:
 DIIS                   CNVDIIS         .... on
   Start iteration      DIISMaxIt       ....    12
   Startup error        DIISStart       ....  0.200000
   # of expansion vecs  DIISMaxEq       ....     5
   Bias factor          DIISBfac        ....   1.050
   Max. coefficient     DIISMaxC        ....  10.000
 Trust-Rad. Augm. Hess. CNVTRAH         .... auto
   Auto Start mean grad. ratio tolernc. ....  1.125000
   Auto Start start iteration           ....    20
   Auto Start num. interpolation iter.  ....    10
   Max. Number of Micro iterations      ....    16
   Max. Number of Macro iterations      .... Maxiter - #DIIS iter
   Number of Davidson start vectors     ....     2
   Converg. threshold I  (grad. norm)   ....   1.000e-05
   Converg. threshold II (energy diff.) ....   1.000e-08
   Grad. Scal. Fac. for Micro threshold ....   0.100
   Minimum threshold for Micro iter.    ....   0.010
   NR start threshold (gradient norm)   ....   0.001
   Initial trust radius                 ....   0.400
   Minimum AH scaling param. (alpha)    ....   1.000
   Maximum AH scaling param. (alpha)    .... 1000.000
   Orbital update algorithm             .... Taylor
   White noise on init. David. guess    .... on
   Maximum white noise                  ....   0.010
   Quad. conv. algorithm                .... NR
 SOSCF                  CNVSOSCF        .... on
   Start iteration      SOSCFMaxIt      ....   150
   Startup grad/error   SOSCFStart      ....  0.003300
 Level Shifting         CNVShift        .... on
   Level shift para.    LevelShift      ....    0.2500
   Turn off err/grad.   ShiftErr        ....    0.0010
 Zerner damping         CNVZerner       .... off
 Static damping         CNVDamp         .... on
   Fraction old density DampFac         ....    0.7000
   Max. Damping (<1)    DampMax         ....    0.9800
   Min. Damping (>=0)   DampMin         ....    0.0000
   Turn off err/grad.   DampErr         ....    0.1000
 Fernandez-Rico         CNVRico         .... off

SCF Procedure:
 Maximum # iterations   MaxIter         ....   125
 SCF integral mode      SCFMode         .... Direct
   Integral package                     .... SHARK and LIBINT hybrid scheme
 Reset frequency        DirectResetFreq ....    20
 Integral Threshold     Thresh          ....  2.500e-11 Eh
 Primitive CutOff       TCut            ....  2.500e-12 Eh

Convergence Tolerance:
 Convergence Check Mode ConvCheckMode   .... Total+1el-Energy
 Convergence forced     ConvForced      .... 0
 Energy Change          TolE            ....  1.000e-08 Eh
 1-El. energy change                    ....  1.000e-05 Eh
 Orbital Gradient       TolG            ....  1.000e-05
 Orbital Rotation angle TolX            ....  1.000e-05
 DIIS Error             TolErr          ....  5.000e-07


Diagonalization of the overlap matrix:
Smallest eigenvalue                        ... 6.567e-06
Time for diagonalization                   ...    0.178 sec
Threshold for overlap eigenvalues          ... 1.000e-08
Number of eigenvalues below threshold      ... 0
Time for construction of square roots      ...    0.110 sec
Total time needed                          ...    0.297 sec

Time for model grid setup =    0.373 sec

------------------------------
INITIAL GUESS: MODEL POTENTIAL
------------------------------
Loading Hartree-Fock densities                     ... done
Calculating cut-offs                               ... done
Initializing the effective Hamiltonian             ... done
Setting up the integral package (SHARK)            ... done
Starting the Coulomb interaction                   ... done (   0.7 sec)
Reading the grid                                   ... done
Mapping shells                                     ... done
Starting the XC term evaluation                    ... done (   0.3 sec)
  promolecular density results
     # of electrons  =    162.986878836
     EX              =   -137.402504191
     EC              =     -5.520731868
     EX+EC           =   -142.923236060
Transforming the Hamiltonian                       ... done (   0.1 sec)
Diagonalizing the Hamiltonian                      ... done (   0.2 sec)
Back transforming the eigenvectors                 ... done (   0.0 sec)
Now organizing SCF variables                       ... done
                      ------------------
                      INITIAL GUESS DONE (   1.7 sec)
                      ------------------
-------------------
DFT GRID GENERATION
-------------------

General Integration Accuracy     IntAcc      ... 4.959
Radial Grid Type                 RadialGrid  ... OptM3 with GC (2021)
Angular Grid (max. ang.)         AngularGrid ... 6 (Lebedev-590)
Angular grid pruning method      GridPruning ... 4 (adaptive)
Weight generation scheme         WeightScheme... Becke
Basis function cutoff            BFCut       ... 1.0000e-11
Integration weight cutoff        WCut        ... 1.0000e-14
Angular grids for H and He will be reduced by one unit
Partially contracted basis set               ... off
Rotationally invariant grid construction     ... off

Total number of grid points                  ...   473063
Total number of batches                      ...     7411
Average number of points per batch           ...       63
Average number of grid points per atom       ...    11538
Time for grid setup =    5.989 sec

--------------------
COSX GRID GENERATION
--------------------

GRIDX 1
-------
General Integration Accuracy     IntAcc      ... 4.020
Radial Grid Type                 RadialGrid  ... OptM3 with GC (2021)
Angular Grid (max. ang.)         AngularGrid ... 2 (Lebedev-110)
Angular grid pruning method      GridPruning ... 4 (adaptive)
Weight generation scheme         WeightScheme... Becke
Basis function cutoff            BFCut       ... 1.0000e-11
Integration weight cutoff        WCut        ... 1.0000e-14
Angular grids for H and He will be reduced by one unit
Partially contracted basis set               ... on
Rotationally invariant grid construction     ... off

Total number of grid points                  ...    52620
Total number of batches                      ...      845
Average number of points per batch           ...       62
Average number of grid points per atom       ...     1283
UseSFitting                                  ... on

GRIDX 2
-------
General Integration Accuracy     IntAcc      ... 4.338
Radial Grid Type                 RadialGrid  ... OptM3 with GC (2021)
Angular Grid (max. ang.)         AngularGrid ... 3 (Lebedev-194)
Angular grid pruning method      GridPruning ... 4 (adaptive)
Weight generation scheme         WeightScheme... Becke
Basis function cutoff            BFCut       ... 1.0000e-11
Integration weight cutoff        WCut        ... 1.0000e-14
Angular grids for H and He will be reduced by one unit
Partially contracted basis set               ... on
Rotationally invariant grid construction     ... off

Total number of grid points                  ...   114928
Total number of batches                      ...     1816
Average number of points per batch           ...       63
Average number of grid points per atom       ...     2803
UseSFitting                                  ... on

GRIDX 3
-------
General Integration Accuracy     IntAcc      ... 4.871
Radial Grid Type                 RadialGrid  ... OptM3 with GC (2021)
Angular Grid (max. ang.)         AngularGrid ... 4 (Lebedev-302)
Angular grid pruning method      GridPruning ... 4 (adaptive)
Weight generation scheme         WeightScheme... Becke
Basis function cutoff            BFCut       ... 1.0000e-11
Integration weight cutoff        WCut        ... 1.0000e-14
Angular grids for H and He will be reduced by one unit
Partially contracted basis set               ... on
Rotationally invariant grid construction     ... off

Total number of grid points                  ...   215987
Total number of batches                      ...     3394
Average number of points per batch           ...       63
Average number of grid points per atom       ...     5268
UseSFitting                                  ... on

Time for X-Grid setup             =    3.890 sec

--------------
SCF ITERATIONS
--------------
ITER       Energy         Delta-E        Max-DP      RMS-DP      [F,P]     Damp
               ***  Starting incremental Fock matrix formation  ***
  0  -1088.2398217099   0.000000000000 0.05127009  0.00041830  0.1641914 0.7000
  1  -1088.4044320639  -0.164610354052 0.05280688  0.00035061  0.0901429 0.7000
                               ***Turning on DIIS***
  2  -1088.4900082659  -0.085576201960 0.11117960  0.00078830  0.0430678 0.0000
  3  -1088.6341528649  -0.144144598953 0.03657985  0.00020597  0.0426331 0.0000
  4  -1088.6527124459  -0.018559581064 0.01047076  0.00007963  0.0053100 0.0000
  5  -1088.6531636514  -0.000451205443 0.00342512  0.00002969  0.0042502 0.0000
                      *** Initiating the SOSCF procedure ***
                           *** Shutting down DIIS ***
                      *** Re-Reading the Fockian *** 
                      *** Removing any level shift *** 
ITER      Energy       Delta-E        Grad      Rot      Max-DP    RMS-DP
  6  -1088.65325325  -0.0000895952  0.000575  0.000575  0.001941  0.000016
               *** Restarting incremental Fock matrix formation ***
  7  -1088.65326865  -0.0000154035  0.000498  0.001290  0.001518  0.000012
  8  -1088.65327256  -0.0000039121  0.000096  0.000536  0.001232  0.000009
  9  -1088.65327367  -0.0000011031  0.000042  0.000096  0.000375  0.000004
 10  -1088.65327390  -0.0000002335  0.000016  0.000033  0.000178  0.000002
 11  -1088.65327393  -0.0000000282  0.000011  0.000026  0.000217  0.000002
 12  -1088.65327392   0.0000000044  0.000005  0.000020  0.000300  0.000003
                  ***Gradient check signals convergence***
              ***Rediagonalizing the Fockian in SOSCF/NRSCF***

               *****************************************************
               *                     SUCCESS                       *
               *           SCF CONVERGED AFTER  13 CYCLES          *
               *****************************************************

Old exchange energy                            =    -44.808748846 Eh
New exchange energy                            =    -44.808749502 Eh
Exchange energy change after final integration =     -0.000000656 Eh
Total energy after final integration           =  -1088.653274575 Eh
Final COS-X integration done in                =    95.615 sec

----------------
TOTAL SCF ENERGY
----------------

Total Energy       :        -1088.65327458 Eh          -29623.76164 eV

Components:
Nuclear Repulsion  :         1804.76321741 Eh           49110.10386 eV
Electronic Energy  :        -2893.41649199 Eh          -78733.86550 eV
One Electron Energy:        -5053.89227230 Eh         -137523.40028 eV
Two Electron Energy:         2160.47578031 Eh           58789.53478 eV
Max COSX asymmetry :            0.00000061 Eh               0.00002 eV

Virial components:
Potential Energy   :        -2172.84021969 Eh          -59125.98828 eV
Kinetic Energy     :         1084.18694512 Eh           29502.22664 eV
Virial Ratio       :            2.00411952


DFT components:
N(Alpha)           :       81.000026235256 electrons
N(Beta)            :       81.000026235256 electrons
N(Total)           :      162.000052470513 electrons
E(XC)              :     -101.241941411409 Eh       
DFET-embed. en.    :        0.000000000000 Eh       

---------------
SCF CONVERGENCE
---------------

  Last Energy change         ...    3.4079e-09  Tolerance :   1.0000e-08
  Last MAX-Density change    ...    1.2212e-15  Tolerance :   1.0000e-07
  Last RMS-Density change    ...    1.1202e-17  Tolerance :   5.0000e-09
  Last Orbital Gradient      ...    1.9757e-06  Tolerance :   1.0000e-05
  Last Orbital Rotation      ...    6.0475e-06  Tolerance :   1.0000e-05

             **** THE GBW FILE WAS UPDATED (Fluoxetine_55.gbw) ****
             **** DENSITY Fluoxetine_55.scfp WAS UPDATED ****
             **** ENERGY FILE WAS UPDATED (Fluoxetine_55.en.tmp) ****
             **** THE GBW FILE WAS UPDATED (Fluoxetine_55.gbw) ****
             **** DENSITY Fluoxetine_55.scfp WAS UPDATED ****
----------------
ORBITAL ENERGIES
----------------

  NO   OCC          E(Eh)            E(eV) 
   0   2.0000     -24.881675      -677.0648 
   1   2.0000     -24.880625      -677.0362 
   2   2.0000     -24.875295      -676.8912 
   3   2.0000     -19.394948      -527.7634 
   4   2.0000     -14.702518      -400.0759 
   5   2.0000     -10.597197      -288.3644 
   6   2.0000     -10.490759      -285.4681 
   7   2.0000     -10.488784      -285.4143 
   8   2.0000     -10.488333      -285.4020 
   9   2.0000     -10.460866      -284.6546 
  10   2.0000     -10.441419      -284.1255 
  11   2.0000     -10.433389      -283.9070 
  12   2.0000     -10.418662      -283.5062 
  13   2.0000     -10.417211      -283.4667 
  14   2.0000     -10.417056      -283.4625 
  15   2.0000     -10.414934      -283.4048 
  16   2.0000     -10.409860      -283.2667 
  17   2.0000     -10.391455      -282.7659 
  18   2.0000     -10.390597      -282.7425 
  19   2.0000     -10.390158      -282.7306 
  20   2.0000     -10.389669      -282.7173 
  21   2.0000     -10.384790      -282.5845 
  22   2.0000      -1.499534       -40.8044 
  23   2.0000      -1.408676       -38.3320 
  24   2.0000      -1.402955       -38.1763 
  25   2.0000      -1.320044       -35.9202 
  26   2.0000      -1.290535       -35.1173 
  27   2.0000      -1.126363       -30.6499 
  28   2.0000      -1.096157       -29.8279 
  29   2.0000      -1.074794       -29.2466 
  30   2.0000      -1.027599       -27.9624 
  31   2.0000      -1.006069       -27.3765 
  32   2.0000      -0.996892       -27.1268 
  33   2.0000      -0.986272       -26.8378 
  34   2.0000      -0.979922       -26.6650 
  35   2.0000      -0.950915       -25.8757 
  36   2.0000      -0.905422       -24.6378 
  37   2.0000      -0.881230       -23.9795 
  38   2.0000      -0.872147       -23.7323 
  39   2.0000      -0.850835       -23.1524 
  40   2.0000      -0.848019       -23.0758 
  41   2.0000      -0.831849       -22.6358 
  42   2.0000      -0.812186       -22.1007 
  43   2.0000      -0.781718       -21.2716 
  44   2.0000      -0.775795       -21.1104 
  45   2.0000      -0.768255       -20.9053 
  46   2.0000      -0.764677       -20.8079 
  47   2.0000      -0.763113       -20.7653 
  48   2.0000      -0.760339       -20.6899 
  49   2.0000      -0.749181       -20.3863 
  50   2.0000      -0.719737       -19.5850 
  51   2.0000      -0.708349       -19.2752 
  52   2.0000      -0.688611       -18.7380 
  53   2.0000      -0.683834       -18.6081 
  54   2.0000      -0.679381       -18.4869 
  55   2.0000      -0.670640       -18.2490 
  56   2.0000      -0.665714       -18.1150 
  57   2.0000      -0.662632       -18.0311 
  58   2.0000      -0.657204       -17.8834 
  59   2.0000      -0.654415       -17.8075 
  60   2.0000      -0.641389       -17.4531 
  61   2.0000      -0.638361       -17.3707 
  62   2.0000      -0.635852       -17.3024 
  63   2.0000      -0.633378       -17.2351 
  64   2.0000      -0.623162       -16.9571 
  65   2.0000      -0.620074       -16.8731 
  66   2.0000      -0.613784       -16.7019 
  67   2.0000      -0.601560       -16.3693 
  68   2.0000      -0.595613       -16.2074 
  69   2.0000      -0.590124       -16.0581 
  70   2.0000      -0.582101       -15.8398 
  71   2.0000      -0.576396       -15.6845 
  72   2.0000      -0.573529       -15.6065 
  73   2.0000      -0.567975       -15.4554 
  74   2.0000      -0.546312       -14.8659 
  75   2.0000      -0.542900       -14.7731 
  76   2.0000      -0.534963       -14.5571 
  77   2.0000      -0.483831       -13.1657 
  78   2.0000      -0.473509       -12.8848 
  79   2.0000      -0.452860       -12.3229 
  80   2.0000      -0.426157       -11.5963 
  81   0.0000      -0.086418        -2.3516 
  82   0.0000      -0.078977        -2.1491 
  83   0.0000      -0.058968        -1.6046 
  84   0.0000      -0.044269        -1.2046 
  85   0.0000      -0.040156        -1.0927 
  86   0.0000      -0.018776        -0.5109 
  87   0.0000      -0.004712        -0.1282 
  88   0.0000       0.006594         0.1794 
  89   0.0000       0.013274         0.3612 
  90   0.0000       0.019276         0.5245 
  91   0.0000       0.026965         0.7338 
  92   0.0000       0.035162         0.9568 
  93   0.0000       0.046511         1.2656 
  94   0.0000       0.051864         1.4113 
  95   0.0000       0.055300         1.5048 
  96   0.0000       0.059269         1.6128 
  97   0.0000       0.064518         1.7556 
  98   0.0000       0.071457         1.9444 
  99   0.0000       0.074698         2.0326 
 100   0.0000       0.076439         2.0800 
 101   0.0000       0.084487         2.2990 
 102   0.0000       0.086587         2.3562 
 103   0.0000       0.093052         2.5321 
 104   0.0000       0.098940         2.6923 
 105   0.0000       0.104224         2.8361 
 106   0.0000       0.105437         2.8691 
 107   0.0000       0.115100         3.1320 
 108   0.0000       0.125761         3.4221 
 109   0.0000       0.130585         3.5534 
 110   0.0000       0.131020         3.5652 
 111   0.0000       0.137712         3.7473 
 112   0.0000       0.141039         3.8379 
 113   0.0000       0.144657         3.9363 
 114   0.0000       0.153036         4.1643 
 115   0.0000       0.156560         4.2602 
 116   0.0000       0.163668         4.4536 
 117   0.0000       0.166748         4.5374 
 118   0.0000       0.172924         4.7055 
 119   0.0000       0.174725         4.7545 
 120   0.0000       0.179979         4.8975 
 121   0.0000       0.183543         4.9944 
 122   0.0000       0.191455         5.2098 
 123   0.0000       0.200251         5.4491 
 124   0.0000       0.200856         5.4656 
 125   0.0000       0.204082         5.5534 
 126   0.0000       0.206708         5.6248 
 127   0.0000       0.209533         5.7017 
 128   0.0000       0.216140         5.8815 
 129   0.0000       0.219017         5.9598 
 130   0.0000       0.221079         6.0159 
 131   0.0000       0.229314         6.2400 
 132   0.0000       0.233071         6.3422 
 133   0.0000       0.246931         6.7193 
 134   0.0000       0.249809         6.7976 
 135   0.0000       0.251467         6.8428 
 136   0.0000       0.254011         6.9120 
 137   0.0000       0.255146         6.9429 
 138   0.0000       0.260044         7.0762 
 139   0.0000       0.270027         7.3478 
 140   0.0000       0.278685         7.5834 
 141   0.0000       0.281019         7.6469 
 142   0.0000       0.284821         7.7504 
 143   0.0000       0.285593         7.7714 
 144   0.0000       0.290027         7.8920 
 145   0.0000       0.295749         8.0477 
 146   0.0000       0.303730         8.2649 
 147   0.0000       0.306544         8.3415 
 148   0.0000       0.311176         8.4675 
 149   0.0000       0.317039         8.6271 
 150   0.0000       0.320783         8.7289 
 151   0.0000       0.328272         8.9327 
 152   0.0000       0.329905         8.9772 
 153   0.0000       0.332986         9.0610 
 154   0.0000       0.336681         9.1616 
 155   0.0000       0.340428         9.2635 
 156   0.0000       0.345186         9.3930 
 157   0.0000       0.348474         9.4825 
 158   0.0000       0.353088         9.6080 
 159   0.0000       0.356608         9.7038 
 160   0.0000       0.357528         9.7288 
 161   0.0000       0.361816         9.8455 
 162   0.0000       0.364435         9.9168 
 163   0.0000       0.367890        10.0108 
 164   0.0000       0.373168        10.1544 
 165   0.0000       0.379574        10.3287 
 166   0.0000       0.383727        10.4418 
 167   0.0000       0.387952        10.5567 
[...]
 11:     63.57   0.000080    0.40  0.000391  (-0.009127 -0.012442  0.012386)
 12:     85.12   0.000207    1.05  0.000759  ( 0.017767 -0.014046  0.015685)
 13:    101.88   0.001203    6.08  0.003684  ( 0.028705 -0.039226 -0.036354)
 14:    106.70   0.000575    2.91  0.001682  ( 0.034583 -0.015199  0.015974)
 15:    159.27   0.000666    3.37  0.001305  ( 0.017235 -0.028700  0.013565)
 16:    173.95   0.002416   12.21  0.004334  ( 0.062523 -0.016027  0.012970)
 17:    197.61   0.000051    0.26  0.000081  ( 0.008759 -0.001896 -0.000822)
 18:    211.67   0.000236    1.19  0.000348  ( 0.010641 -0.015237 -0.001681)
 19:    237.01   0.000843    4.26  0.001109  ( 0.026021 -0.020482 -0.003584)
 20:    258.70   0.001143    5.78  0.001379  ( 0.010400 -0.031771 -0.016170)
 21:    270.91   0.001759    8.89  0.002026  ( 0.026044 -0.036570  0.003220)
 22:    289.17   0.000149    0.75  0.000160  ( 0.007202 -0.010414 -0.000066)
 23:    330.35   0.000357    1.80  0.000337  (-0.010246 -0.007429 -0.013303)
 24:    349.14   0.000217    1.10  0.000194  ( 0.005205  0.005502 -0.011683)
 25:    405.11   0.000366    1.85  0.000282  (-0.004639  0.016106 -0.001156)
 26:    420.63   0.000117    0.59  0.000087  (-0.004751 -0.007762  0.001930)
 27:    422.77   0.000106    0.53  0.000078  (-0.007365  0.000939  0.004797)
 28:    428.48   0.000151    0.76  0.000110  (-0.009293  0.004845  0.000511)
 29:    442.08   0.001394    7.04  0.000984  ( 0.026900 -0.013355  0.009045)
 30:    492.03   0.001899    9.60  0.001205  ( 0.029987 -0.017469  0.000472)
 31:    522.28   0.000179    0.90  0.000107  (-0.000093 -0.008944 -0.005186)
 32:    523.28   0.000674    3.41  0.000402  ( 0.008355  0.004886  0.017555)
 33:    565.89   0.000505    2.55  0.000278  (-0.001073 -0.016407 -0.002834)
 34:    584.97   0.000081    0.41  0.000043  ( 0.006226 -0.001842 -0.001014)
 35:    608.22   0.002913   14.72  0.001495  (-0.018237 -0.010188 -0.032530)
 36:    627.96   0.002042   10.32  0.001015  ( 0.024359 -0.018404 -0.009106)
 37:    635.35   0.000032    0.16  0.000016  (-0.000386  0.002494 -0.003029)
 38:    658.88   0.001710    8.64  0.000810  (-0.027202  0.005990  0.005843)
 39:    685.20   0.001795    9.07  0.000818  ( 0.028172 -0.004882  0.000210)
 40:    740.44   0.006884   34.79  0.002901  (-0.045430  0.028060 -0.007069)
 41:    766.39   0.000146    0.74  0.000060  ( 0.004645  0.005052  0.003537)
 42:    770.23   0.000546    2.76  0.000221  (-0.012873  0.004676 -0.005790)
 43:    785.85   0.010486   52.99  0.004164  ( 0.050696 -0.039220  0.007470)
 44:    789.31   0.003726   18.83  0.001473  (-0.030242  0.022115  0.008334)
 45:    821.14   0.000945    4.78  0.000359  (-0.005028  0.011031  0.014569)
 46:    846.02   0.001273    6.43  0.000470  ( 0.004686  0.009368  0.018970)
 47:    861.51   0.000076    0.39  0.000028  ( 0.005050 -0.000453 -0.001385)
 48:    871.27   0.003748   18.94  0.001342  (-0.031128  0.012720  0.014545)
 49:    877.45   0.011421   57.72  0.004062  ( 0.023273  0.021774  0.055193)
 50:    900.98   0.000076    0.39  0.000026  (-0.002456 -0.003752  0.002519)
 51:    933.17   0.001554    7.85  0.000520  (-0.021100  0.004376 -0.007434)
 52:    977.73   0.000665    3.36  0.000212  (-0.012181  0.003391 -0.007239)
 53:    992.50   0.001945    9.83  0.000611  (-0.009372  0.013322  0.018605)
 54:    998.38   0.000326    1.65  0.000102  ( 0.001081 -0.004157 -0.009142)
 55:   1001.10   0.002751   13.90  0.000857  (-0.023756 -0.010042 -0.013865)
 56:   1018.41   0.000053    0.27  0.000016  (-0.002452 -0.000428  0.003192)
 57:   1028.21   0.000447    2.26  0.000136  ( 0.004794  0.010611  0.000074)
 58:   1035.84   0.000094    0.48  0.000028  (-0.005148  0.001251  0.000621)
 59:   1040.07   0.005455   27.57  0.001637  (-0.039087  0.006380  0.008258)
 60:   1054.50   0.002731   13.80  0.000808  ( 0.014339  0.001497  0.024500)
 61:   1056.27   0.000621    3.14  0.000183  ( 0.008481  0.000432  0.010551)
 62:   1065.52   0.000865    4.37  0.000253  (-0.013888 -0.006761  0.003830)
 63:   1084.31   0.005012   25.33  0.001442  ( 0.036095  0.005322 -0.010550)
 64:   1105.46   0.024533  123.98  0.006925  (-0.080126  0.011337  0.019408)
 65:   1110.14   0.004489   22.69  0.001262  ( 0.025214 -0.025023 -0.000158)
 66:   1130.44   0.003659   18.49  0.001010  (-0.030428 -0.003647 -0.008427)
 67:   1146.75   0.007202   36.40  0.001960  (-0.004540 -0.038901  0.020643)
 68:   1166.25   0.000362    1.83  0.000097  ( 0.007592  0.005589  0.002844)
 69:   1174.38   0.001806    9.13  0.000480  (-0.008512 -0.016908  0.011025)
 70:   1181.70   0.049554  250.43  0.013086  (-0.022304 -0.041601 -0.104203)
 71:   1190.93   0.000110    0.56  0.000029  ( 0.004118 -0.000254  0.003442)
 72:   1210.45   0.036191  182.90  0.009330  (-0.055292 -0.071140  0.034818)
 73:   1212.52   0.001121    5.66  0.000288  ( 0.014376 -0.007789  0.004594)
 74:   1218.10   0.010389   52.50  0.002662  ( 0.034379 -0.035252  0.015397)
 75:   1236.49   0.003051   15.42  0.000770  (-0.003049  0.027479  0.002372)
 76:   1282.47   0.000554    2.80  0.000135  ( 0.010514 -0.004268  0.002449)
 77:   1289.42   0.068130  344.30  0.016489  ( 0.127401 -0.012118 -0.010538)
 78:   1315.77   0.001868    9.44  0.000443  ( 0.014631  0.010440  0.010951)
 79:   1324.40   0.000716    3.62  0.000169  ( 0.007405  0.001380 -0.010578)
 80:   1342.23   0.004698   23.74  0.001092  ( 0.026565  0.016015 -0.011408)
 81:   1348.31   0.016544   83.61  0.003829  ( 0.055752 -0.026740 -0.002384)
 82:   1357.53   0.061647  311.54  0.014171  ( 0.117622 -0.013596 -0.012300)
 83:   1360.76   0.001753    8.86  0.000402  ( 0.011980 -0.012917 -0.009574)
 84:   1369.55   0.007990   40.38  0.001821  ( 0.040738 -0.012335 -0.002984)
 85:   1384.99   0.001516    7.66  0.000342  ( 0.000395  0.018159 -0.003410)
 86:   1401.93   0.007599   38.40  0.001692  (-0.039418 -0.004400 -0.010886)
 87:   1411.97   0.002819   14.25  0.000623  ( 0.012811  0.002485  0.021278)
 88:   1419.58   0.003918   19.80  0.000861  ( 0.015994 -0.024499 -0.002273)
 89:   1452.99   0.006556   33.13  0.001408  ( 0.029787 -0.016210  0.016064)
 90:   1475.47   0.001942    9.81  0.000411  (-0.006651  0.017395 -0.007997)
 91:   1475.69   0.000675    3.41  0.000143  ( 0.004671 -0.006746  0.008682)
 92:   1479.04   0.002145   10.84  0.000453  (-0.011202  0.004745  0.017452)
 93:   1502.07   0.004303   21.75  0.000894  (-0.023205 -0.007456  0.017318)
 94:   1504.17   0.005853   29.58  0.001214  (-0.030172  0.006591 -0.016141)
 95:   1507.22   0.002899   14.65  0.000600  ( 0.015343 -0.006906 -0.017809)
 96:   1513.77   0.004434   22.41  0.000914  (-0.009304 -0.027414  0.008713)
 97:   1548.18   0.002386   12.06  0.000481  (-0.010514 -0.014960 -0.012110)
 98:   1576.03   0.014363   72.58  0.002844  ( 0.052995 -0.004498 -0.003903)
 99:   1653.62   0.002138   10.80  0.000403  (-0.003128  0.019498  0.003675)
100:   1664.43   0.001436    7.26  0.000269  ( 0.006678 -0.013334  0.006850)
101:   1675.58   0.003750   18.95  0.000698  ( 0.014018 -0.020814  0.008282)
102:   1683.18   0.000867    4.38  0.000161  (-0.002384 -0.012449 -0.000296)
103:   1704.13   0.020980  106.02  0.003842  (-0.061360  0.002359  0.008442)
104:   3059.52   0.001152    5.82  0.000118  (-0.000536  0.001992 -0.010643)
105:   3081.53   0.001858    9.39  0.000188  ( 0.010143  0.002236 -0.008959)
106:   3099.15   0.000175    0.89  0.000018  (-0.002471  0.003146 -0.001285)
107:   3108.09   0.001553    7.85  0.000156  (-0.008430  0.008884 -0.002429)
108:   3137.99   0.000691    3.49  0.000069  (-0.004517 -0.006916 -0.000698)
109:   3167.52   0.000423    2.14  0.000042  ( 0.003542 -0.004819 -0.002435)
110:   3185.92   0.000433    2.19  0.000042  ( 0.000677  0.002318  0.006046)
111:   3200.73   0.000256    1.30  0.000025  ( 0.003152 -0.003881  0.000076)
112:   3202.09   0.000013    0.06  0.000001  ( 0.000184  0.001073  0.000245)
113:   3206.01   0.000005    0.02  0.000000  (-0.000220  0.000626  0.000119)
114:   3214.95   0.000040    0.20  0.000004  ( 0.001021  0.000041 -0.001692)
115:   3219.86   0.000379    1.92  0.000037  (-0.005443  0.002670 -0.000003)
116:   3221.79   0.000284    1.43  0.000027  (-0.002105 -0.001287  0.004626)
117:   3225.42   0.000458    2.32  0.000044  ( 0.006420  0.000873 -0.001533)
118:   3232.47   0.000264    1.33  0.000025  ( 0.002197  0.004054  0.002058)
119:   3234.96   0.000108    0.55  0.000010  (-0.002331  0.002177 -0.000532)
120:   3239.84   0.000965    4.88  0.000093  ( 0.009457 -0.000030 -0.001874)
121:   3326.56   0.081620  412.47  0.007657  (-0.046038  0.074397  0.001499)
122:   3515.97   0.011746   59.36  0.001043  (-0.027774  0.002493  0.016276)

* The epsilon (eps) is given for a Dirac delta lineshape.
** The dipole moment derivative (T) already includes vibrational overlap.

The first frequency considered to be a vibration is 6
The total number of vibrations considered is 117


--------------------------
THERMOCHEMISTRY AT 298.15K
--------------------------

Temperature         ... 298.15 K
Pressure            ... 1.00 atm
Total Mass          ... 310.34 AMU

Throughout the following assumptions are being made:
  (1) The electronic state is orbitally nondegenerate
  (2) There are no thermally accessible electronically excited states
  (3) Hindered rotations indicated by low frequency modes are not
      treated as such but are treated as vibrations and this may
      cause some error
  (4) All equations used are the standard statistical mechanics
      equations for an ideal gas
  (5) All vibrations are strictly harmonic

freq.       8.75  E(vib)   ...       0.58 
freq.      20.15  E(vib)   ...       0.56 
freq.      30.07  E(vib)   ...       0.55 
freq.      48.83  E(vib)   ...       0.53 
freq.      52.62  E(vib)   ...       0.52 
freq.      63.57  E(vib)   ...       0.51 
freq.      85.12  E(vib)   ...       0.48 
freq.     101.88  E(vib)   ...       0.46 
freq.     106.70  E(vib)   ...       0.45 
freq.     159.27  E(vib)   ...       0.39 
freq.     173.95  E(vib)   ...       0.38 
freq.     197.61  E(vib)   ...       0.35 
freq.     211.67  E(vib)   ...       0.34 
freq.     237.01  E(vib)   ...       0.32 
freq.     258.70  E(vib)   ...       0.30 
freq.     270.91  E(vib)   ...       0.29 
freq.     289.17  E(vib)   ...       0.27 
freq.     330.35  E(vib)   ...       0.24 
freq.     349.14  E(vib)   ...       0.23 
freq.     405.11  E(vib)   ...       0.19 
freq.     420.63  E(vib)   ...       0.18 
freq.     422.77  E(vib)   ...       0.18 
freq.     428.48  E(vib)   ...       0.18 
freq.     442.08  E(vib)   ...       0.17 
freq.     492.03  E(vib)   ...       0.14 
freq.     522.28  E(vib)   ...       0.13 
freq.     523.28  E(vib)   ...       0.13 
freq.     565.89  E(vib)   ...       0.11 
freq.     584.97  E(vib)   ...       0.11 
freq.     608.22  E(vib)   ...       0.10 
freq.     627.96  E(vib)   ...       0.09 
freq.     635.35  E(vib)   ...       0.09 
freq.     658.88  E(vib)   ...       0.08 
freq.     685.20  E(vib)   ...       0.07 
freq.     740.44  E(vib)   ...       0.06 
freq.     766.39  E(vib)   ...       0.06 
freq.     770.23  E(vib)   ...       0.05 
freq.     785.85  E(vib)   ...       0.05 
freq.     789.31  E(vib)   ...       0.05 
freq.     821.14  E(vib)   ...       0.05 
freq.     846.02  E(vib)   ...       0.04 
freq.     861.51  E(vib)   ...       0.04 
freq.     871.27  E(vib)   ...       0.04 
freq.     877.45  E(vib)   ...       0.04 
freq.     900.98  E(vib)   ...       0.03 
freq.     933.17  E(vib)   ...       0.03 
freq.     977.73  E(vib)   ...       0.03 
freq.     992.50  E(vib)   ...       0.02 
freq.     998.38  E(vib)   ...       0.02 
freq.    1001.10  E(vib)   ...       0.02 
freq.    1018.41  E(vib)   ...       0.02 
freq.    1028.21  E(vib)   ...       0.02 
freq.    1035.84  E(vib)   ...       0.02 
freq.    1040.07  E(vib)   ...       0.02 
freq.    1054.50  E(vib)   ...       0.02 
freq.    1056.27  E(vib)   ...       0.02 
freq.    1065.52  E(vib)   ...       0.02 
freq.    1084.31  E(vib)   ...       0.02 
freq.    1105.46  E(vib)   ...       0.02 
freq.    1110.14  E(vib)   ...       0.02 
freq.    1130.44  E(vib)   ...       0.01 
freq.    1146.75  E(vib)   ...       0.01 
freq.    1166.25  E(vib)   ...       0.01 
freq.    1174.38  E(vib)   ...       0.01 
freq.    1181.70  E(vib)   ...       0.01 
freq.    1190.93  E(vib)   ...       0.01 
freq.    1210.45  E(vib)   ...       0.01 
freq.    1212.52  E(vib)   ...       0.01 
freq.    1218.10  E(vib)   ...       0.01 
freq.    1236.49  E(vib)   ...       0.01 
freq.    1282.47  E(vib)   ...       0.01 
freq.    1289.42  E(vib)   ...       0.01 
freq.    1315.77  E(vib)   ...       0.01 
freq.    1324.40  E(vib)   ...       0.01 
freq.    1342.23  E(vib)   ...       0.01 
freq.    1348.31  E(vib)   ...       0.01 
freq.    1357.53  E(vib)   ...       0.01 
freq.    1360.76  E(vib)   ...       0.01 
freq.    1369.55  E(vib)   ...       0.01 
freq.    1384.99  E(vib)   ...       0.00 
freq.    1401.93  E(vib)   ...       0.00 
freq.    1411.97  E(vib)   ...       0.00 
freq.    1419.58  E(vib)   ...       0.00 
freq.    1452.99  E(vib)   ...       0.00 
freq.    1475.47  E(vib)   ...       0.00 
freq.    1475.69  E(vib)   ...       0.00 
freq.    1479.04  E(vib)   ...       0.00 
freq.    1502.07  E(vib)   ...       0.00 
freq.    1504.17  E(vib)   ...       0.00 
freq.    1507.22  E(vib)   ...       0.00 
freq.    1513.77  E(vib)   ...       0.00 
freq.    1548.18  E(vib)   ...       0.00 
freq.    1576.03  E(vib)   ...       0.00 
freq.    1653.62  E(vib)   ...       0.00 
freq.    1664.43  E(vib)   ...       0.00 
freq.    1675.58  E(vib)   ...       0.00 
freq.    1683.18  E(vib)   ...       0.00 
freq.    1704.13  E(vib)   ...       0.00 
freq.    3059.52  E(vib)   ...       0.00 
freq.    3081.53  E(vib)   ...       0.00 
freq.    3099.15  E(vib)   ...       0.00 
freq.    3108.09  E(vib)   ...       0.00 
freq.    3137.99  E(vib)   ...       0.00 
freq.    3167.52  E(vib)   ...       0.00 
freq.    3185.92  E(vib)   ...       0.00 
freq.    3200.73  E(vib)   ...       0.00 
freq.    3202.09  E(vib)   ...       0.00 
freq.    3206.01  E(vib)   ...       0.00 
freq.    3214.95  E(vib)   ...       0.00 
freq.    3219.86  E(vib)   ...       0.00 
freq.    3221.79  E(vib)   ...       0.00 
freq.    3225.42  E(vib)   ...       0.00 
freq.    3232.47  E(vib)   ...       0.00 
freq.    3234.96  E(vib)   ...       0.00 
freq.    3239.84  E(vib)   ...       0.00 
freq.    3326.56  E(vib)   ...       0.00 
freq.    3515.97  E(vib)   ...       0.00 

------------
INNER ENERGY
------------

The inner energy is: U= E(el) + E(ZPE) + E(vib) + E(rot) + E(trans)
    E(el)   - is the total energy from the electronic structure calculation
              = E(kin-el) + E(nuc-el) + E(el-el) + E(nuc-nuc)
    E(ZPE)  - the the zero temperature vibrational energy from the frequency calculation
    E(vib)  - the the finite temperature correction to E(ZPE) due to population
              of excited vibrational states
    E(rot)  - is the rotational thermal energy
    E(trans)- is the translational thermal energy

Summary of contributions to the inner energy U:
Electronic energy                ...  -1088.68328273 Eh
Zero point energy                ...      0.34018417 Eh     213.47 kcal/mol
Thermal vibrational correction   ...      0.01712764 Eh      10.75 kcal/mol
Thermal rotational correction    ...      0.00141627 Eh       0.89 kcal/mol
Thermal translational correction ...      0.00141627 Eh       0.89 kcal/mol
-----------------------------------------------------------------------
Total thermal energy                  -1088.32313837 Eh


Summary of corrections to the electronic energy:
(perhaps to be used in another calculation)
Total thermal correction                  0.01996019 Eh      12.53 kcal/mol
Non-thermal (ZPE) correction              0.34018417 Eh     213.47 kcal/mol
-----------------------------------------------------------------------
Total correction                          0.36014436 Eh     225.99 kcal/mol


--------
ENTHALPY
--------

The enthalpy is H = U + kB*T
                kB is Boltzmann's constant
Total free energy                 ...  -1088.32313837 Eh 
Thermal Enthalpy correction       ...      0.00094421 Eh       0.59 kcal/mol
-----------------------------------------------------------------------
Total Enthalpy                    ...  -1088.32219417 Eh


Note: Only C1 symmetry has been detected, increase convergence thresholds 
      if your molecule has a higher symmetry. Symmetry factor of 1.0 is   
      used for the rotational entropy correction. 
 

Note: Rotational entropy computed according to Herzberg 
Infrared and Raman Spectra, Chapter V,1, Van Nostrand Reinhold, 1945 
Point Group:  C1, Symmetry Number:   1  
Rotational constants in cm-1:     0.018552     0.004225     0.003865 

Vibrational entropy computed according to the QRRHO of S. Grimme
Chem.Eur.J. 2012 18 9955


-------
ENTROPY
-------

The entropy contributions are T*S = T*(S(el)+S(vib)+S(rot)+S(trans))
     S(el)   - electronic entropy
     S(vib)  - vibrational entropy
     S(rot)  - rotational entropy
     S(trans)- translational entropy
The entropies will be listed as multiplied by the temperature to get
units of energy

Electronic entropy                ...      0.00000000 Eh      0.00 kcal/mol
Vibrational entropy               ...      0.03115141 Eh     19.55 kcal/mol
Rotational entropy                ...      0.01659683 Eh     10.41 kcal/mol
Translational entropy             ...      0.02047516 Eh     12.85 kcal/mol
-----------------------------------------------------------------------
Final entropy term                ...      0.06822341 Eh     42.81 kcal/mol

In case the symmetry of your molecule has not been determined correctly
or in case you have a reason to use a different symmetry number we print 
out the resulting rotational entropy values for sn=1,12 :
 --------------------------------------------------------
|  sn= 1 | S(rot)=       0.01659683 Eh     10.41 kcal/mol|
|  sn= 2 | S(rot)=       0.01594238 Eh     10.00 kcal/mol|
|  sn= 3 | S(rot)=       0.01555954 Eh      9.76 kcal/mol|
|  sn= 4 | S(rot)=       0.01528792 Eh      9.59 kcal/mol|
|  sn= 5 | S(rot)=       0.01507723 Eh      9.46 kcal/mol|
|  sn= 6 | S(rot)=       0.01490509 Eh      9.35 kcal/mol|
|  sn= 7 | S(rot)=       0.01475954 Eh      9.26 kcal/mol|
|  sn= 8 | S(rot)=       0.01463346 Eh      9.18 kcal/mol|
|  sn= 9 | S(rot)=       0.01452226 Eh      9.11 kcal/mol|
|  sn=10 | S(rot)=       0.01442278 Eh      9.05 kcal/mol|
|  sn=11 | S(rot)=       0.01433279 Eh      8.99 kcal/mol|
|  sn=12 | S(rot)=       0.01425063 Eh      8.94 kcal/mol|
 --------------------------------------------------------


-------------------
GIBBS FREE ENERGY
-------------------

The Gibbs free energy is G = H - T*S

Total enthalpy                    ...  -1088.32219417 Eh 
Total entropy correction          ...     -0.06822341 Eh    -42.81 kcal/mol
-----------------------------------------------------------------------
Final Gibbs free energy         ...  -1088.39041757 Eh

For completeness - the Gibbs free energy minus the electronic energy
G-E(el)                           ...      0.29286516 Eh    183.78 kcal/mol


Timings for individual modules:

Sum of individual times         ...    20125.187 sec (= 335.420 min)
GTO integral calculation        ...       34.184 sec (=   0.570 min)   0.2 %
SCF iterations                  ...    10399.967 sec (= 173.333 min)  51.7 %
SCF Gradient evaluation         ...     2555.570 sec (=  42.593 min)  12.7 %
Geometry relaxation             ...        2.993 sec (=   0.050 min)   0.0 %
Analytical frequency calculation...     5611.931 sec (=  93.532 min)  27.9 %
CHELPG charge generation        ...     1520.543 sec (=  25.342 min)   7.6 %
                             ****ORCA TERMINATED NORMALLY****
TOTAL RUN TIME: 0 days 5 hours 35 minutes 45 seconds 762 msec
