
Lmod is automatically replacing "intel/2020.1.217" with "gcc/10.3.0".


Due to MODULEPATH changes, the following have been reloaded:
  1) blis/0.8.1     2) flexiblas/3.0.4

The following have been reloaded with a version change:
  1) gcccore/.9.3.0 => gcccore/.10.3.0        3) openmpi/4.0.3 => openmpi/4.1.1
  2) libfabric/1.10.1 => libfabric/1.12.1     4) ucx/1.8.0 => ucx/1.9.0

To execute ORCA, run: 
   ${EBROOTORCA}/orca orca.inp > orca.out

                                 *****************
                                 * O   R   C   A *
                                 *****************

                                            #,                                       
                                            ###                                      
                                            ####                                     
                                            #####                                    
                                            ######                                   
                                           ########,                                 
                                     ,,################,,,,,                         
                               ,,#################################,,                 
                          ,,##########################################,,             
                       ,#########################################, ''#####,          
                    ,#############################################,,   '####,        
                  ,##################################################,,,,####,       
                ,###########''''           ''''###############################       
              ,#####''   ,,,,##########,,,,          '''####'''          '####       
            ,##' ,,,,###########################,,,                        '##       
           ' ,,###''''                  '''############,,,                           
         ,,##''                                '''############,,,,        ,,,,,,###''
      ,#''                                            '''#######################'''  
     '                                                          ''''####''''         
             ,#######,   #######,   ,#######,      ##                                
            ,#'     '#,  ##    ##  ,#'     '#,    #''#        ######   ,####,        
            ##       ##  ##   ,#'  ##            #'  '#       #        #'  '#        
            ##       ##  #######   ##           ,######,      #####,   #    #        
            '#,     ,#'  ##    ##  '#,     ,#' ,#      #,         ##   #,  ,#        
             '#######'   ##     ##  '#######'  #'      '#     #####' # '####'        



                  #######################################################
                  #                        -***-                        #
                  #          Department of theory and spectroscopy      #
                  #    Directorship and core code : Frank Neese         #
                  #        Max Planck Institute fuer Kohlenforschung    #
                  #                Kaiser Wilhelm Platz 1               #
                  #                 D-45470 Muelheim/Ruhr               #
                  #                      Germany                        #
                  #                                                     #
                  #                  All rights reserved                #
                  #                        -***-                        #
                  #######################################################


                         Program Version 5.0.3 -  RELEASE  -


 With contributions from (in alphabetic order):
   Daniel Aravena         : Magnetic Suceptibility
   Michael Atanasov       : Ab Initio Ligand Field Theory (pilot matlab implementation)
   Alexander A. Auer      : GIAO ZORA, VPT2 properties, NMR spectrum
   Ute Becker             : Parallelization
   Giovanni Bistoni       : ED, misc. LED, open-shell LED, HFLD
   Martin Brehm           : Molecular dynamics
   Dmytro Bykov           : SCF Hessian
   Vijay G. Chilkuri      : MRCI spin determinant printing, contributions to CSF-ICE
   Dipayan Datta          : RHF DLPNO-CCSD density
   Achintya Kumar Dutta   : EOM-CC, STEOM-CC
   Dmitry Ganyushin       : Spin-Orbit,Spin-Spin,Magnetic field MRCI
   Miquel Garcia          : C-PCM and meta-GGA Hessian, CC/C-PCM, Gaussian charge scheme
   Yang Guo               : DLPNO-NEVPT2, F12-NEVPT2, CIM, IAO-localization
   Andreas Hansen         : Spin unrestricted coupled pair/coupled cluster methods
   Benjamin Helmich-Paris : MC-RPA, TRAH-SCF, COSX integrals
   Lee Huntington         : MR-EOM, pCC
   Robert Izsak           : Overlap fitted RIJCOSX, COSX-SCS-MP3, EOM
   Marcus Kettner         : VPT2
   Christian Kollmar      : KDIIS, OOCD, Brueckner-CCSD(T), CCSD density, CASPT2, CASPT2-K
   Simone Kossmann        : Meta GGA functionals, TD-DFT gradient, OOMP2, MP2 Hessian
   Martin Krupicka        : Initial AUTO-CI
   Lucas Lang             : DCDCAS
   Marvin Lechner         : AUTO-CI (C++ implementation), FIC-MRCC
   Dagmar Lenk            : GEPOL surface, SMD
   Dimitrios Liakos       : Extrapolation schemes; Compound Job, initial MDCI parallelization
   Dimitrios Manganas     : Further ROCIS development; embedding schemes
   Dimitrios Pantazis     : SARC Basis sets
   Anastasios Papadopoulos: AUTO-CI, single reference methods and gradients
   Taras Petrenko         : DFT Hessian,TD-DFT gradient, ASA, ECA, R-Raman, ABS, FL, XAS/XES, NRVS
   Peter Pinski           : DLPNO-MP2, DLPNO-MP2 Gradient
   Christoph Reimann      : Effective Core Potentials
   Marius Retegan         : Local ZFS, SOC
   Christoph Riplinger    : Optimizer, TS searches, QM/MM, DLPNO-CCSD(T), (RO)-DLPNO pert. Triples
   Tobias Risthaus        : Range-separated hybrids, TD-DFT gradient, RPA, STAB
   Michael Roemelt        : Original ROCIS implementation
   Masaaki Saitow         : Open-shell DLPNO-CCSD energy and density
   Barbara Sandhoefer     : DKH picture change effects
   Avijit Sen             : IP-ROCIS
   Kantharuban Sivalingam : CASSCF convergence, NEVPT2, FIC-MRCI
   Bernardo de Souza      : ESD, SOC TD-DFT
   Georgi Stoychev        : AutoAux, RI-MP2 NMR, DLPNO-MP2 response
   Willem Van den Heuvel  : Paramagnetic NMR
   Boris Wezisla          : Elementary symmetry handling
   Frank Wennmohs         : Technical directorship


 We gratefully acknowledge several colleagues who have allowed us to
 interface, adapt or use parts of their codes:
   Stefan Grimme, W. Hujo, H. Kruse, P. Pracht,  : VdW corrections, initial TS optimization,
                  C. Bannwarth, S. Ehlert          DFT functionals, gCP, sTDA/sTD-DF
   Ed Valeev, F. Pavosevic, A. Kumar             : LibInt (2-el integral package), F12 methods
   Garnet Chan, S. Sharma, J. Yang, R. Olivares  : DMRG
   Ulf Ekstrom                                   : XCFun DFT Library
   Mihaly Kallay                                 : mrcc  (arbitrary order and MRCC methods)
   Jiri Pittner, Ondrej Demel                    : Mk-CCSD
   Frank Weinhold                                : gennbo (NPA and NBO analysis)
   Christopher J. Cramer and Donald G. Truhlar   : smd solvation model
   Lars Goerigk                                  : TD-DFT with DH, B97 family of functionals
   V. Asgeirsson, H. Jonsson                     : NEB implementation
   FAccTs GmbH                                   : IRC, NEB, NEB-TS, DLPNO-Multilevel, CI-OPT
                                                   MM, QMMM, 2- and 3-layer-ONIOM, Crystal-QMMM,
                                                   LR-CPCM, SF, NACMEs, symmetry and pop. for TD-DFT,
                                                   nearIR, NL-DFT gradient (VV10), updates on ESD,
                                                   ML-optimized integration grids
   S Lehtola, MJT Oliveira, MAL Marques          : LibXC Library
   Liviu Ungur et al                             : ANISO software


 Your calculation uses the libint2 library for the computation of 2-el integrals
 For citations please refer to: http://libint.valeyev.net

 Your ORCA version has been built with support for libXC version: 5.1.0
 For citations please refer to: https://tddft.org/programs/libxc/

 This ORCA versions uses:
   CBLAS   interface :  Fast vector & matrix operations
   LAPACKE interface :  Fast linear algebra routines
   SCALAPACK package :  Parallel linear algebra routines
   Shared memory     :  Shared parallel matrices
   BLAS/LAPACK       :  OpenBLAS 0.3.15  USE64BITINT DYNAMIC_ARCH NO_AFFINITY Zen SINGLE_THREADED
        Core in use  :  Zen
   Copyright (c) 2011-2014, The OpenBLAS Project


Your calculation utilizes the atom-pairwise dispersion correction
with the zero-damping scheme (D30)
Cite in your paper:
S.Grimme, J.Antony, S.Ehrlich and H.Krieg, J.Chem.Phys., 132, (2010), 154104 
   

XCFun DFT library Copyright 2009-2010 Ulf Ekstrom and contributors.
See http://admol.org/xcfun for more information.
This is free software; see the source code for copying conditions.
There is ABSOLUTELY NO WARRANTY; not even for MERCHANTABILITY or FITNESS FOR A PARTICULAR PURPOSE.
For details see the documentation.
Scientific users of this library should cite U. Ekstrom, L. Visscher, R. Bast, A. J. Thorvaldsen and K. Ruud;
J.Chem.Theor.Comp. 2010, DOI: 10.1021/ct100117s
XCFun Version 0.99 

================================================================================

----- Orbital basis set information -----
Your calculation utilizes the basis: def2-TZVPP
   F. Weigend and R. Ahlrichs, Phys. Chem. Chem. Phys. 7, 3297 (2005).

----- AuxJ basis set information -----
Your calculation utilizes the auxiliary basis: def2/J
   F. Weigend, Phys. Chem. Chem. Phys. 8, 1057 (2006).

================================================================================
                                        WARNINGS
                       Please study these warnings very carefully!
================================================================================


WARNING: Geometry Optimization
  ===> : Switching off AutoStart
         For restart on a previous wavefunction, please use MOREAD

INFO   : the flag for use of the SHARK integral package has been found!

================================================================================
                                       INPUT FILE
================================================================================
NAME = Fluoxetine_35.inp
|  1> ! wB97X-D3 TightOpt Freq def2-TZVPP def2/J RIJCOSX TightSCF defgrid3 CHELPG
|  2> %maxcore 3200
|  3> 
|  4> %pal nprocs 8 
|  5> end
|  6> 
|  7> %chelpg
|  8> grid 0.1
|  9> rmax 3.0
| 10> end
| 11> 
| 12> 
| 13> *xyz 1 1
| 14>  C    -2.7033128224    4.4465156995    1.1017398110
| 15>  N    -2.3967353704    3.2994148472    0.2333762945
| 16>  C    -3.5890496337    2.5569156494    -0.2541362051
| 17>  C    -3.1731467893    1.1820464726    -0.7714680923
| 18>  C    -2.5924378208    0.3123452881    0.3560796943
| 19>  C    -2.3275399088    -1.1358764394    0.0029467886
| 20>  C    -1.8102532912    -1.9510624320    1.0054904903
| 21>  C    -1.5269614908    -3.2802728628    0.7556338253
| 22>  C    -1.7682884807    -3.8151050264    -0.4986318395
| 23>  C    -2.2932980018    -3.0133966215    -1.4965066853
| 24>  C    -2.5692693857    -1.6782813143    -1.2523096018
| 25>  O    -1.4305033789    0.9556272084    0.9385561119
| 26>  C    -0.1456784890    0.5924806533    0.5680623223
| 27>  C    0.8251120134    0.7623084670    1.5506460354
| 28>  C    2.1471677307    0.4800179094    1.2741682707
| 29>  C    2.4983007908    0.0196753771    0.0118578638
| 30>  C    1.5334280519    -0.1439286748    -0.9703700923
| 31>  C    0.2091120464    0.1491525735    -0.6982584617
| 32>  C    3.9428025158    -0.2558884664    -0.3123943132
| 33>  F    4.0860162502    -1.2284262459    -1.2197599102
| 34>  F    4.5387751734    0.8380425236    -0.8258983542
| 35>  F    4.6528351305    -0.6087290862    0.7633839461
| 36>  H    -3.3363097053    5.1607316738    0.5773005414
| 37>  H    -1.7842121809    4.9446490917    1.4025212934
| 38>  H    -3.2236833508    4.1040277587    1.9937498307
| 39>  H    -1.8271519300    2.5602212625    0.7397199985
| 40>  H    -4.0885750581    3.1345135714    -1.0343988599
| 41>  H    -4.2781686533    2.4419105240    0.5853984804
| 42>  H    -2.4530113420    1.2918483858    -1.5840755829
| 43>  H    -4.0592106635    0.6851466953    -1.1645232771
| 44>  H    -3.3102860792    0.3221833855    1.1899977617
| 45>  H    -1.6270805978    -1.5374844811    1.9867436640
| 46>  H    -1.1237721140    -3.8981191584    1.5423867744
| 47>  H    -1.5516561270    -4.8528896018    -0.6962205253
| 48>  H    -2.4890343208    -3.4244609070    -2.4745833056
| 49>  H    -2.9748506025    -1.0779433093    -2.0521201838
| 50>  H    0.5290199993    1.1069433164    2.5287812141
| 51>  H    2.9006498845    0.6023150053    2.0360291336
| 52>  H    1.8138776317    -0.5012223116    -1.9486491079
| 53>  H    -0.5268978224    0.0061690731    -1.4712825963
| 54>  H    -1.8407425411    3.6143747459    -0.5680281219
| 55> *
| 56> 
| 57> 
| 58>                          ****END OF INPUT****
================================================================================

                       *****************************
                       * Geometry Optimization Run *
                       *****************************

Geometry optimization settings:
Update method            Update   .... BFGS
Choice of coordinates    CoordSys .... Z-matrix Internals
Initial Hessian          InHess   .... Almoef's Model

Convergence Tolerances:
Energy Change            TolE     ....  1.0000e-06 Eh
Max. Gradient            TolMAXG  ....  1.0000e-04 Eh/bohr
RMS Gradient             TolRMSG  ....  3.0000e-05 Eh/bohr
Max. Displacement        TolMAXD  ....  1.0000e-03 bohr
RMS Displacement         TolRMSD  ....  6.0000e-04 bohr
Strict Convergence                ....  False
------------------------------------------------------------------------------
                        ORCA OPTIMIZATION COORDINATE SETUP
------------------------------------------------------------------------------

The optimization will be done in new redundant internal coordinates
Making redundant internal coordinates   ...  (new redundants) done
Evaluating the initial hessian          ...  (Almloef) done
Evaluating the coordinates              ...  done
Calculating the B-matrix                .... done
Calculating the G-matrix                .... done
Diagonalizing the G-matrix              .... done
Small eigenvalue found = 1.892e-03
Small eigenvalue found = 4.495e-03
Small eigenvalue found = 8.370e-03
Small eigenvalue found = 9.958e-03
Small eigenvalue found = 1.136e-02
Small eigenvalue found = 2.652e-02
The first mode is                       ....   99
The number of degrees of freedom        ....  117

    -----------------------------------------------------------------
                    Redundant Internal Coordinates


    -----------------------------------------------------------------
         Definition                    Initial Value    Approx d2E/dq
    -----------------------------------------------------------------
      1. B(N   1,C   0)                  1.4710         0.415548   
      2. B(C   2,N   1)                  1.4868         0.392130   
      3. B(C   3,C   2)                  1.5267         0.378104   
      4. B(C   4,C   3)                  1.5378         0.362962   
      5. B(C   5,C   4)                  1.5140         0.396179   
      6. B(C   6,C   5)                  1.3918         0.620596   
      7. B(C   7,C   6)                  1.3818         0.643808   
      8. B(C   8,C   7)                  1.3847         0.637019   
      9. B(C   9,C   8)                  1.3835         0.639850   
     10. B(C  10,C   9)                  1.3850         0.636294   
     11. B(C  10,C   5)                  1.3886         0.627939   
     12. B(O  11,C   4)                  1.4502         0.448512   
     13. B(C  12,O  11)                  1.3856         0.568694   
     14. B(C  13,C  12)                  1.3917         0.620974   
     15. B(C  14,C  13)                  1.3798         0.648556   
     16. B(C  15,C  14)                  1.3888         0.627663   
     17. B(C  16,C  15)                  1.3865         0.632768   
     18. B(C  17,C  16)                  1.3834         0.640165   
     19. B(C  17,C  12)                  1.3878         0.629870   
     20. B(C  18,C  15)                  1.5059         0.408194   
     21. B(F  19,C  18)                  1.3378         0.629915   
     22. B(F  20,C  18)                  1.3474         0.607984   
     23. B(F  21,C  18)                  1.3364         0.633135   
     24. B(H  22,C   0)                  1.0890         0.361483   
     25. B(H  23,C   0)                  1.0878         0.362995   
     26. B(H  24,C   0)                  1.0880         0.362742   
     27. B(H  25,N   1)                  1.0617         0.357852   
     28. B(H  26,C   2)                  1.0918         0.357770   
     29. B(H  27,C   2)                  1.0922         0.357184   
     30. B(H  28,C   3)                  1.0913         0.358356   
     31. B(H  29,C   3)                  1.0893         0.361066   
     32. B(H  30,C   4)                  1.1004         0.346635   
     33. B(H  31,C   6)                  1.0805         0.372904   
     34. B(H  32,C   7)                  1.0786         0.375566   
     35. B(H  33,C   8)                  1.0784         0.375763   
     36. B(H  34,C   9)                  1.0789         0.375154   
     37. B(H  35,C  10)                  1.0792         0.374721   
     38. B(H  36,C  13)                  1.0785         0.375620   
     39. B(H  37,C  14)                  1.0785         0.375663   
     40. B(H  38,C  16)                  1.0786         0.375525   
     41. B(H  39,C  17)                  1.0769         0.377849   
     42. B(H  40,N   1)                  1.0250         0.409544   
     43. A(N   1,C   0,H  22)          110.3835         0.328283   
     44. A(H  22,C   0,H  24)          108.8615         0.291349   
     45. A(N   1,C   0,H  24)          109.7662         0.328471   
     46. A(H  22,C   0,H  23)          108.9023         0.291381   
     47. A(H  23,C   0,H  24)          108.7569         0.291540   
     48. A(N   1,C   0,H  23)          110.1342         0.328509   
     49. A(C   0,N   1,C   2)          114.5732         0.368487   
     50. A(C   0,N   1,H  25)          111.9132         0.324955   
     51. A(C   2,N   1,H  25)          103.8218         0.321877   
     52. A(C   2,N   1,H  40)          109.3955         0.329099   
     53. A(H  25,N   1,H  40)          107.2067         0.291701   
     54. A(C   0,N   1,H  40)          109.5716         0.332272   
     55. A(N   1,C   2,H  27)          107.8494         0.324523   
     56. A(C   3,C   2,H  26)          111.0326         0.324615   
     57. A(H  26,C   2,H  27)          108.4435         0.290173   
     58. A(N   1,C   2,C   3)          110.0214         0.364847   
     59. A(N   1,C   2,H  26)          109.6972         0.324611   
     60. A(C   3,C   2,H  27)          109.7256         0.324528   
     61. A(C   2,C   3,H  29)          108.1485         0.325105   
     62. A(C   2,C   3,H  28)          109.9662         0.324702   
     63. A(C   4,C   3,H  29)          108.2856         0.322931   
     64. A(C   4,C   3,H  28)          110.7120         0.322532   
     65. A(H  28,C   3,H  29)          108.2995         0.290740   
     66. A(C   2,C   3,C   4)          111.3279         0.362312   
     67. A(C   5,C   4,H  30)          107.4250         0.325421   
     68. A(C   3,C   4,H  30)          107.7135         0.320781   
     69. A(O  11,C   4,H  30)          102.3762         0.330153   
     70. A(C   3,C   4,O  11)          110.2536         0.370745   
     71. A(C   3,C   4,C   5)          115.8498         0.365216   
     72. A(C   5,C   4,O  11)          112.1972         0.376385   
     73. A(C   4,C   5,C   6)          117.2106         0.400870   
     74. A(C   6,C   5,C  10)          119.1464         0.435137   
     75. A(C   4,C   5,C  10)          123.6428         0.401702   
     76. A(C   7,C   6,H  31)          119.8442         0.357283   
     77. A(C   5,C   6,H  31)          119.5359         0.355062   
     78. A(C   5,C   6,C   7)          120.6196         0.437097   
     79. A(C   6,C   7,H  32)          119.7207         0.357715   
     80. A(C   6,C   7,C   8)          119.9720         0.439161   
     81. A(C   8,C   7,H  32)          120.3063         0.357071   
     82. A(C   9,C   8,H  33)          120.1138         0.357372   
     83. A(C   7,C   8,H  33)          120.1747         0.357103   
     84. A(C   7,C   8,C   9)          119.7111         0.438673   
     85. A(C  10,C   9,H  34)          119.4049         0.356935   
     86. A(C   8,C   9,H  34)          120.1287         0.357273   
     87. A(C   8,C   9,C  10)          120.4662         0.438583   
     88. A(C   9,C  10,H  35)          118.7155         0.356865   
     89. A(C   5,C  10,H  35)          121.2038         0.356065   
     90. A(C   5,C  10,C   9)          120.0805         0.437099   
     91. A(C   4,O  11,C  12)          121.2840         0.398320   
     92. A(C  13,C  12,C  17)          120.3242         0.435425   
     93. A(O  11,C  12,C  17)          124.3855         0.425803   
     94. A(O  11,C  12,C  13)          115.2179         0.424720   
     95. A(C  12,C  13,H  36)          119.1973         0.355536   
     96. A(C  12,C  13,C  14)          120.1274         0.437725   
     97. A(C  14,C  13,H  36)          120.6728         0.358171   
     98. A(C  13,C  14,C  15)          119.4848         0.438571   
     99. A(C  15,C  14,H  37)          120.2015         0.356190   
    100. A(C  13,C  14,H  37)          120.3080         0.358178   
    101. A(C  16,C  15,C  18)          119.5638         0.404370   
    102. A(C  14,C  15,C  18)          119.9281         0.403792   
    103. A(C  14,C  15,C  16)          120.4685         0.436627   
    104. A(C  15,C  16,C  17)          120.1210         0.438182   
    105. A(C  17,C  16,H  38)          119.8349         0.357363   
    106. A(C  15,C  16,H  38)          120.0441         0.356658   
    107. A(C  12,C  17,C  16)          119.4651         0.437820   
    108. A(C  16,C  17,H  39)          119.0088         0.357738   
    109. A(C  12,C  17,H  39)          121.5121         0.356754   
    110. A(F  20,C  18,F  21)          106.6267         0.424736   
    111. A(F  19,C  18,F  21)          107.2880         0.427440   
    112. A(C  15,C  18,F  21)          112.6210         0.400069   
    113. A(F  19,C  18,F  20)          106.5215         0.424349   
    114. A(C  15,C  18,F  20)          110.9635         0.397228   
    115. A(C  15,C  18,F  19)          112.4433         0.399710   
    116. D(C   2,N   1,C   0,H  24)     61.1809         0.015773   
    117. D(H  25,N   1,C   0,H  24)    -56.6651         0.015773   
    118. D(H  25,N   1,C   0,H  23)     63.0491         0.015773   
    119. D(H  25,N   1,C   0,H  22)   -176.6648         0.015773   
    120. D(H  40,N   1,C   0,H  24)   -175.4437         0.015773   
    121. D(H  40,N   1,C   0,H  22)     64.5566         0.015773   
    122. D(H  40,N   1,C   0,H  23)    -55.7294         0.015773   
    123. D(C   2,N   1,C   0,H  22)    -58.8187         0.015773   
    124. D(C   2,N   1,C   0,H  23)   -179.1048         0.015773   
    125. D(H  26,C   2,N   1,H  40)    -48.7875         0.014061   
    126. D(H  26,C   2,N   1,H  25)   -162.9665         0.014061   
    127. D(H  26,C   2,N   1,C   0)     74.6823         0.014061   
    128. D(H  27,C   2,N   1,H  25)     79.1092         0.014061   
    129. D(C   3,C   2,N   1,C   0)   -162.8940         0.014061   
    130. D(C   3,C   2,N   1,H  40)     73.6362         0.014061   
    131. D(H  27,C   2,N   1,H  40)   -166.7118         0.014061   
    132. D(C   3,C   2,N   1,H  25)    -40.5428         0.014061   
    133. D(H  27,C   2,N   1,C   0)    -43.2420         0.014061   
    134. D(H  29,C   3,C   2,H  26)    -55.6449         0.011400   
    135. D(H  29,C   3,C   2,N   1)   -177.2761         0.011400   
    136. D(H  28,C   3,C   2,H  27)   -177.7046         0.011400   
    137. D(H  28,C   3,C   2,H  26)     62.4308         0.011400   
    138. D(C   4,C   3,C   2,H  27)    -54.6251         0.011400   
    139. D(H  28,C   3,C   2,N   1)    -59.2004         0.011400   
    140. D(C   4,C   3,C   2,H  26)   -174.4896         0.011400   
    141. D(H  29,C   3,C   2,H  27)     64.2197         0.011400   
    142. D(C   4,C   3,C   2,N   1)     63.8791         0.011400   
    143. D(O  11,C   4,C   3,C   2)    -59.5268         0.010557   
    144. D(C   5,C   4,C   3,H  29)     52.9373         0.010557   
    145. D(C   5,C   4,C   3,H  28)    -65.6484         0.010557   
    146. D(C   5,C   4,C   3,C   2)    171.6999         0.010557   
    147. D(H  30,C   4,C   3,H  29)    -67.3317         0.010557   
    148. D(H  30,C   4,C   3,H  28)    174.0826         0.010557   
    149. D(H  30,C   4,C   3,C   2)     51.4309         0.010557   
    150. D(O  11,C   4,C   3,H  29)   -178.2895         0.010557   
    151. D(O  11,C   4,C   3,H  28)     63.1248         0.010557   
    152. D(C  10,C   5,C   4,H  30)    120.9990         0.011659   
    153. D(C  10,C   5,C   4,O  11)   -127.2431         0.011659   
    154. D(C  10,C   5,C   4,C   3)      0.5741         0.011659   
    155. D(C   6,C   5,C   4,H  30)    -59.1497         0.011659   
    156. D(C   6,C   5,C   4,O  11)     52.6081         0.011659   
    157. D(C   6,C   5,C   4,C   3)   -179.5747         0.011659   
    158. D(H  31,C   6,C   5,C  10)   -179.5191         0.026654   
    159. D(H  31,C   6,C   5,C   4)      0.6227         0.026654   
    160. D(C   7,C   6,C   5,C  10)      0.6367         0.026654   
    161. D(C   7,C   6,C   5,C   4)   -179.2215         0.026654   
    162. D(H  32,C   7,C   6,H  31)     -0.0214         0.028821   
    163. D(H  32,C   7,C   6,C   5)    179.8223         0.028821   
    164. D(C   8,C   7,C   6,H  31)    179.6077         0.028821   
    165. D(C   8,C   7,C   6,C   5)     -0.5487         0.028821   
    166. D(H  33,C   8,C   7,H  32)     -0.1585         0.028176   
    167. D(H  33,C   8,C   7,C   6)   -179.7854         0.028176   
    168. D(C   9,C   8,C   7,H  32)    179.6085         0.028176   
    169. D(C   9,C   8,C   7,C   6)     -0.0184         0.028176   
    170. D(H  34,C   9,C   8,H  33)      0.1035         0.028444   
    171. D(H  34,C   9,C   8,C   7)   -179.6636         0.028444   
    172. D(C  10,C   9,C   8,H  33)   -179.7409         0.028444   
    173. D(C  10,C   9,C   8,C   7)      0.4920         0.028444   
    174. D(C   5,C  10,C   9,C   8)     -0.4002         0.028108   
    175. D(H  35,C  10,C   5,C   6)    179.6608         0.027328   
    176. D(H  35,C  10,C   5,C   4)     -0.4906         0.027328   
    177. D(C   9,C  10,C   5,C   6)     -0.1622         0.027328   
    178. D(C   9,C  10,C   5,C   4)    179.6863         0.027328   
    179. D(H  35,C  10,C   9,H  34)     -0.0731         0.028108   
    180. D(H  35,C  10,C   9,C   8)    179.7724         0.028108   
    181. D(C   5,C  10,C   9,H  34)    179.7543         0.028108   
    182. D(C  12,O  11,C   4,H  30)    146.8147         0.015842   
    183. D(C  12,O  11,C   4,C   5)     31.9387         0.015842   
    184. D(C  12,O  11,C   4,C   3)    -98.7924         0.015842   
    185. D(C  17,C  12,O  11,C   4)     32.2258         0.023470   
    186. D(C  13,C  12,O  11,C   4)   -150.8693         0.023470   
    187. D(H  36,C  13,C  12,C  17)   -179.9491         0.026688   
    188. D(H  36,C  13,C  12,O  11)      3.0099         0.026688   
    189. D(C  14,C  13,C  12,C  17)     -0.5244         0.026688   
    190. D(C  14,C  13,C  12,O  11)   -177.5654         0.026688   
    191. D(H  37,C  14,C  13,H  36)     -0.0456         0.029278   
    192. D(H  37,C  14,C  13,C  12)   -179.4617         0.029278   
    193. D(C  15,C  14,C  13,H  36)    179.0936         0.029278   
    194. D(C  15,C  14,C  13,C  12)     -0.3225         0.029278   
    195. D(C  18,C  15,C  14,H  37)     -2.5172         0.027303   
    196. D(C  18,C  15,C  14,C  13)    178.3427         0.027303   
    197. D(C  16,C  15,C  14,H  37)    179.7799         0.027303   
    198. D(C  16,C  15,C  14,C  13)      0.6397         0.027303   
    199. D(H  38,C  16,C  15,C  18)      2.2439         0.027777   
    200. D(H  38,C  16,C  15,C  14)    179.9552         0.027777   
    201. D(C  17,C  16,C  15,C  18)   -177.8197         0.027777   
    202. D(C  17,C  16,C  15,C  14)     -0.1084         0.027777   
    203. D(H  39,C  17,C  16,C  15)   -179.3929         0.028474   
    204. D(C  12,C  17,C  16,H  38)    179.2010         0.028474   
    205. D(C  12,C  17,C  16,C  15)     -0.7355         0.028474   
    206. D(H  39,C  17,C  12,C  13)    179.6752         0.027507   
    207. D(H  39,C  17,C  12,O  11)     -3.5690         0.027507   
    208. D(C  16,C  17,C  12,C  13)      1.0524         0.027507   
    209. D(H  39,C  17,C  16,H  38)      0.5436         0.028474   
    210. D(C  16,C  17,C  12,O  11)    177.8083         0.027507   
    211. D(F  21,C  18,C  15,C  16)   -153.5821         0.012345   
    212. D(F  21,C  18,C  15,C  14)     28.6941         0.012345   
    213. D(F  20,C  18,C  15,C  16)     86.9720         0.012345   
    214. D(F  20,C  18,C  15,C  14)    -90.7519         0.012345   
    215. D(F  19,C  18,C  15,C  16)    -32.2204         0.012345   
    216. D(F  19,C  18,C  15,C  14)    150.0558         0.012345   
    -----------------------------------------------------------------

Number of atoms                         .... 41
Number of degrees of freedom            .... 216

         *************************************************************
         *                GEOMETRY OPTIMIZATION CYCLE   1            *
         *************************************************************
---------------------------------
CARTESIAN COORDINATES (ANGSTROEM)
---------------------------------
  C     -2.703313    4.446516    1.101740
  N     -2.396735    3.299415    0.233376
  C     -3.589050    2.556916   -0.254136
  C     -3.173147    1.182046   -0.771468
  C     -2.592438    0.312345    0.356080
  C     -2.327540   -1.135876    0.002947
  C     -1.810253   -1.951062    1.005490
  C     -1.526961   -3.280273    0.755634
  C     -1.768288   -3.815105   -0.498632
  C     -2.293298   -3.013397   -1.496507
  C     -2.569269   -1.678281   -1.252310
  O     -1.430503    0.955627    0.938556
  C     -0.145678    0.592481    0.568062
  C      0.825112    0.762308    1.550646
  C      2.147168    0.480018    1.274168
  C      2.498301    0.019675    0.011858
  C      1.533428   -0.143929   -0.970370
  C      0.209112    0.149153   -0.698258
  C      3.942803   -0.255888   -0.312394
  F      4.086016   -1.228426   -1.219760
  F      4.538775    0.838043   -0.825898
  F      4.652835   -0.608729    0.763384
  H     -3.336310    5.160732    0.577301
  H     -1.784212    4.944649    1.402521
  H     -3.223683    4.104028    1.993750
  H     -1.827152    2.560221    0.739720
  H     -4.088575    3.134514   -1.034399
  H     -4.278169    2.441911    0.585398
  H     -2.453011    1.291848   -1.584076
  H     -4.059211    0.685147   -1.164523
  H     -3.310286    0.322183    1.189998
  H     -1.627081   -1.537484    1.986744
  H     -1.123772   -3.898119    1.542387
  H     -1.551656   -4.852890   -0.696221
  H     -2.489034   -3.424461   -2.474583
  H     -2.974851   -1.077943   -2.052120
  H      0.529020    1.106943    2.528781
  H      2.900650    0.602315    2.036029
  H      1.813878   -0.501222   -1.948649
  H     -0.526898    0.006169   -1.471283
  H     -1.840743    3.614375   -0.568028

----------------------------
CARTESIAN COORDINATES (A.U.)
----------------------------
  NO LB      ZA    FRAG     MASS         X           Y           Z
   0 C     6.0000    0    12.011   -5.108521    8.402697    2.081987
   1 N     7.0000    0    14.007   -4.529173    6.234990    0.441017
   2 C     6.0000    0    12.011   -6.782321    4.831870   -0.480248
   3 C     6.0000    0    12.011   -5.996378    2.233744   -1.457863
   4 C     6.0000    0    12.011   -4.898998    0.590247    0.672893
   5 C     6.0000    0    12.011   -4.398413   -2.146495    0.005569
   6 C     6.0000    0    12.011   -3.420883   -3.686974    1.900102
   7 C     6.0000    0    12.011   -2.885539   -6.198817    1.427941
   8 C     6.0000    0    12.011   -3.341581   -7.209504   -0.942278
   9 C     6.0000    0    12.011   -4.333705   -5.694494   -2.827988
  10 C     6.0000    0    12.011   -4.855216   -3.171492   -2.366522
  11 O     8.0000    0    15.999   -2.703260    1.805874    1.773614
  12 C     6.0000    0    12.011   -0.275292    1.119626    1.073482
  13 C     6.0000    0    12.011    1.559236    1.440554    2.930296
  14 C     6.0000    0    12.011    4.057559    0.907102    2.407829
  15 C     6.0000    0    12.011    4.721104    0.037181    0.022408
  16 C     6.0000    0    12.011    2.897759   -0.271986   -1.833734
  17 C     6.0000    0    12.011    0.395164    0.281858   -1.319517
  18 C     6.0000    0    12.011    7.450817   -0.483559   -0.590340
  19 F     9.0000    0    18.998    7.721452   -2.321389   -2.305012
  20 F     9.0000    0    18.998    8.577042    1.583671   -1.560722
  21 F     9.0000    0    18.998    8.792584   -1.150331    1.442587
  22 H     1.0000    0     1.008   -6.304712    9.752370    1.090940
  23 H     1.0000    0     1.008   -3.371672    9.344033    2.650381
  24 H     1.0000    0     1.008   -6.091879    7.755489    3.767641
  25 H     1.0000    0     1.008   -3.452817    4.838117    1.397868
  26 H     1.0000    0     1.008   -7.726287    5.923372   -1.954731
  27 H     1.0000    0     1.008   -8.084567    4.614542    1.106243
  28 H     1.0000    0     1.008   -4.635520    2.441240   -2.993469
  29 H     1.0000    0     1.008   -7.670796    1.294740   -2.200630
  30 H     1.0000    0     1.008   -6.255534    0.608838    2.248770
  31 H     1.0000    0     1.008   -3.074737   -2.905425    3.754401
  32 H     1.0000    0     1.008   -2.123622   -7.366378    2.914689
  33 H     1.0000    0     1.008   -2.932205   -9.170632   -1.315666
  34 H     1.0000    0     1.008   -4.703593   -6.471293   -4.676285
  35 H     1.0000    0     1.008   -5.621653   -2.037018   -3.877945
  36 H     1.0000    0     1.008    0.999703    2.091820    4.778704
  37 H     1.0000    0     1.008    5.481434    1.138210    3.847537
  38 H     1.0000    0     1.008    3.427732   -0.947173   -3.682413
  39 H     1.0000    0     1.008   -0.995693    0.011658   -2.780321
  40 H     1.0000    0     1.008   -3.478499    6.830178   -1.073418

--------------------------------
INTERNAL COORDINATES (ANGSTROEM)
--------------------------------
 C      0   0   0     0.000000000000     0.00000000     0.00000000
 N      1   0   0     1.471015056419     0.00000000     0.00000000
 C      2   1   0     1.486804223315   114.57321903     0.00000000
 C      3   2   1     1.526719591414   110.02136333   197.10599217
 C      4   3   2     1.537844942601   111.32790120    63.87913615
 C      5   4   3     1.514007901192   115.84980723   171.69992726
 C      6   5   4     1.391836025219   117.21061138   180.42529650
 C      7   6   5     1.381840427317   120.61964671   180.77851329
 C      8   7   6     1.384726152411   119.97199354   359.45134926
 C      9   8   7     1.383519270416   119.71109698     0.00000000
 C     10   9   8     1.385036210300   120.46618182     0.49200023
 O      5   4   3     1.450235171729   110.25355140   300.47317178
 C     12   5   4     1.385610358766   121.28396566   261.20762726
 C     13  12   5     1.391670377318   115.21794921   209.13067861
 C     14  13  12     1.379840292544   120.12736378   182.43461980
 C     15  14  13     1.388753842950   119.48480802   359.67749590
 C     16  15  14     1.386548753494   120.46853184     0.63974462
 C     17  16  15     1.383385065712   120.12100366   359.89155618
 C     16  15  14     1.505875207201   119.92814886   178.34269176
 F     19  16  15     1.337778843043   112.44329149   150.05578155
 F     19  16  15     1.347425255668   110.96348113   269.24813527
 F     19  16  15     1.336391290042   112.62095063    28.69405493
 H      1   2   3     1.088956408313   110.38354746   301.18125942
 H      1   2   3     1.087820006152   110.13421422   180.89517124
 H      1   2   3     1.088009812302   109.76620711    61.18094244
 H      2   1   3     1.061704477630   111.91322861   242.15391546
 H      3   2   1     1.091766833896   109.69720284    74.68230347
 H      3   2   1     1.092213207300   107.84941021   316.75799282
 H      4   3   2     1.091321426702   109.96621973   300.79961855
 H      4   3   2     1.089270836909   108.14848023   182.72389199
 H      5   4   3     1.100373688064   107.71348299    51.43094640
 H      7   6   5     1.080489124413   119.53594968     0.62269124
 H      8   7   6     1.078552697585   119.72067050   179.82228749
 H      9   8   7     1.078409797046   120.17466424   180.21462700
 H     10   9   8     1.078851439526   120.12870997   180.33638070
 H     11  10   9     1.079165793911   118.71554261   179.77237785
 H     14  13  12     1.078513833034   119.19733067     3.00988567
 H     15  14  13     1.078482225250   120.30803444   180.53829750
 H     17  16  15     1.078582654260   120.04406337   179.95515485
 H     18  17  16     1.076903487334   119.00875594   180.60705712
 H      2   1   3     1.024976488827   109.57157988   123.37538624

---------------------------
INTERNAL COORDINATES (A.U.)
---------------------------
 C      0   0   0     0.000000000000     0.00000000     0.00000000
 N      1   0   0     2.779815595506     0.00000000     0.00000000
 C      2   1   0     2.809652796824   114.57321903     0.00000000
 C      3   2   1     2.885081911065   110.02136333   197.10599217
 C      4   3   2     2.906105777952   111.32790120    63.87913615
 C      5   4   3     2.861060297847   115.84980723   171.69992726
 C      6   5   4     2.630188910990   117.21061138   180.42529650
 C      7   6   5     2.611299968409   120.61964671   180.77851329
 C      8   7   6     2.616753198536   119.97199354   359.45134926
 C      9   8   7     2.614472522089   119.71109698     0.00000000
 C     10   9   8     2.617339123031   120.46618182     0.49200023
 O      5   4   3     2.740547304347   110.25355140   300.47317178
 C     12   5   4     2.618424106392   121.28396566   261.20762726
 C     13  12   5     2.629875881823   115.21794921   209.13067861
 C     14  13  12     2.607520261459   120.12736378   182.43461980
 C     15  14  13     2.624364430606   119.48480802   359.67749590
 C     16  15  14     2.620197415433   120.46853184     0.63974462
 C     17  16  15     2.614218911953   120.12100366   359.89155618
 C     16  15  14     2.845691733471   119.92814886   178.34269176
 F     19  16  15     2.528035641106   112.44329149   150.05578155
 F     19  16  15     2.546264719142   110.96348113   269.24813527
 F     19  16  15     2.525413545938   112.62095063    28.69405493
 H      1   2   3     2.057829383489   110.38354746   301.18125942
 H      1   2   3     2.055681894628   110.13421422   180.89517124
 H      1   2   3     2.056040576270   109.76620711    61.18094244
 H      2   1   3     2.006330697879   111.91322861   242.15391546
 H      3   2   1     2.063140318163   109.69720284    74.68230347
 H      3   2   1     2.063983841649   107.84941021   316.75799282
 H      4   3   2     2.062298620548   109.96621973   300.79961855
 H      4   3   2     2.058423567426   108.14848023   182.72389199
 H      5   4   3     2.079404915415   107.71348299    51.43094640
 H      7   6   5     2.041828535821   119.53594968     0.62269124
 H      8   7   6     2.038169219438   119.72067050   179.82228749
 H      9   8   7     2.037899176554   120.17466424   180.21462700
 H     10   9   8     2.038733759890   120.12870997   180.33638070
 H     11  10   9     2.039327803587   118.71554261   179.77237785
 H     14  13  12     2.038095776080   119.19733067     3.00988567
 H     15  14  13     2.038036046024   120.30803444   180.53829750
 H     17  16  15     2.038225829350   120.04406337   179.95515485
 H     18  17  16     2.035052663726   119.00875594   180.60705712
 H      2   1   3     1.936924857591   109.57157988   123.37538624

---------------------
BASIS SET INFORMATION
---------------------
There are 5 groups of distinct atoms

 Group   1 Type C   : 11s6p2d1f contracted to 5s3p2d1f pattern {62111/411/11/1}
 Group   2 Type N   : 11s6p2d1f contracted to 5s3p2d1f pattern {62111/411/11/1}
 Group   3 Type O   : 11s6p2d1f contracted to 5s3p2d1f pattern {62111/411/11/1}
 Group   4 Type F   : 11s6p2d1f contracted to 5s3p2d1f pattern {62111/411/11/1}
 Group   5 Type H   : 5s2p1d contracted to 3s2p1d pattern {311/11/1}

Atom   0C    basis set group =>   1
Atom   1N    basis set group =>   2
Atom   2C    basis set group =>   1
Atom   3C    basis set group =>   1
Atom   4C    basis set group =>   1
Atom   5C    basis set group =>   1
Atom   6C    basis set group =>   1
Atom   7C    basis set group =>   1
Atom   8C    basis set group =>   1
Atom   9C    basis set group =>   1
Atom  10C    basis set group =>   1
Atom  11O    basis set group =>   3
Atom  12C    basis set group =>   1
Atom  13C    basis set group =>   1
Atom  14C    basis set group =>   1
Atom  15C    basis set group =>   1
Atom  16C    basis set group =>   1
Atom  17C    basis set group =>   1
Atom  18C    basis set group =>   1
Atom  19F    basis set group =>   4
Atom  20F    basis set group =>   4
Atom  21F    basis set group =>   4
Atom  22H    basis set group =>   5
Atom  23H    basis set group =>   5
Atom  24H    basis set group =>   5
Atom  25H    basis set group =>   5
Atom  26H    basis set group =>   5
Atom  27H    basis set group =>   5
Atom  28H    basis set group =>   5
Atom  29H    basis set group =>   5
Atom  30H    basis set group =>   5
Atom  31H    basis set group =>   5
Atom  32H    basis set group =>   5
Atom  33H    basis set group =>   5
Atom  34H    basis set group =>   5
Atom  35H    basis set group =>   5
Atom  36H    basis set group =>   5
Atom  37H    basis set group =>   5
Atom  38H    basis set group =>   5
Atom  39H    basis set group =>   5
Atom  40H    basis set group =>   5
---------------------------------
AUXILIARY/J BASIS SET INFORMATION
---------------------------------
There are 5 groups of distinct atoms

 Group   1 Type C   : 12s5p4d2f1g contracted to 6s4p3d1f1g pattern {711111/2111/211/2/1}
 Group   2 Type N   : 12s5p4d2f1g contracted to 6s4p3d1f1g pattern {711111/2111/211/2/1}
 Group   3 Type O   : 12s5p4d2f1g contracted to 6s4p3d1f1g pattern {711111/2111/211/2/1}
 Group   4 Type F   : 12s5p4d2f1g contracted to 6s4p3d1f1g pattern {711111/2111/211/2/1}
 Group   5 Type H   : 5s2p1d contracted to 3s1p1d pattern {311/2/1}

Atom   0C    basis set group =>   1
Atom   1N    basis set group =>   2
Atom   2C    basis set group =>   1
Atom   3C    basis set group =>   1
Atom   4C    basis set group =>   1
Atom   5C    basis set group =>   1
Atom   6C    basis set group =>   1
Atom   7C    basis set group =>   1
Atom   8C    basis set group =>   1
Atom   9C    basis set group =>   1
Atom  10C    basis set group =>   1
Atom  11O    basis set group =>   3
Atom  12C    basis set group =>   1
Atom  13C    basis set group =>   1
Atom  14C    basis set group =>   1
Atom  15C    basis set group =>   1
Atom  16C    basis set group =>   1
Atom  17C    basis set group =>   1
Atom  18C    basis set group =>   1
Atom  19F    basis set group =>   4
Atom  20F    basis set group =>   4
Atom  21F    basis set group =>   4
Atom  22H    basis set group =>   5
Atom  23H    basis set group =>   5
Atom  24H    basis set group =>   5
Atom  25H    basis set group =>   5
Atom  26H    basis set group =>   5
Atom  27H    basis set group =>   5
Atom  28H    basis set group =>   5
Atom  29H    basis set group =>   5
Atom  30H    basis set group =>   5
Atom  31H    basis set group =>   5
Atom  32H    basis set group =>   5
Atom  33H    basis set group =>   5
Atom  34H    basis set group =>   5
Atom  35H    basis set group =>   5
Atom  36H    basis set group =>   5
Atom  37H    basis set group =>   5
Atom  38H    basis set group =>   5
Atom  39H    basis set group =>   5
Atom  40H    basis set group =>   5


           ************************************************************
           *        Program running with 8 parallel MPI-processes     *
           *              working on a common directory               *
           ************************************************************
------------------------------------------------------------------------------
                           ORCA GTO INTEGRAL CALCULATION
                           -- RI-GTO INTEGRALS CHOSEN --
------------------------------------------------------------------------------
------------------------------------------------------------------------------
                   ___                                                        
                  /   \      - P O W E R E D   B Y -                         
                 /     \                                                     
                 |  |  |   _    _      __       _____    __    __             
                 |  |  |  | |  | |    /  \     |  _  \  |  |  /  |          
                  \  \/   | |  | |   /    \    | | | |  |  | /  /          
                 / \  \   | |__| |  /  /\  \   | |_| |  |  |/  /          
                |  |  |   |  __  | /  /__\  \  |    /   |      \           
                |  |  |   | |  | | |   __   |  |    \   |  |\   \          
                \     /   | |  | | |  |  |  |  | |\  \  |  | \   \       
                 \___/    |_|  |_| |__|  |__|  |_| \__\ |__|  \__/        
                                                                              
                      - O R C A' S   B I G   F R I E N D -                    
                                      &                                       
                       - I N T E G R A L  F E E D E R -                       
                                                                              
 v1 FN, 2020, v2 2021                                                         
------------------------------------------------------------------------------


Reading SHARK input file Fluoxetine_35.SHARKINP.tmp ... ok
----------------------
SHARK INTEGRAL PACKAGE
----------------------

Number of atoms                             ...     41
Number of basis functions                   ...    948
Number of shells                            ...    356
Maximum angular momentum                    ...      3
Integral batch strategy                     ... SHARK/LIBINT Hybrid
RI-J (if used) integral strategy            ... SPLIT-RIJ (Revised 2003 algorithm where possible)
Printlevel                                  ...      1
Contraction scheme used                     ... SEGMENTED contraction
Coulomb Range Separation                    ... NOT USED
Exchange Range Separation                   ... Long Range
   Mu parameter                             ...  0.250000
   Scaling (regular/separated)              ...  0.195728  0.804272
Finite Nucleus Model                        ... NOT USED
Auxiliary Coulomb fitting basis             ... AVAILABLE
   # of basis functions in Aux-J            ...   1287
   # of shells in Aux-J                     ...    425
   Maximum angular momentum in Aux-J        ...      4
Auxiliary J/K fitting basis                 ... NOT available
Auxiliary Correlation fitting basis         ... NOT available
Auxiliary 'external' fitting basis          ... NOT available
Integral threshold                          ...     2.500000e-11
Primitive cut-off                           ...     2.500000e-12
Primitive pair pre-selection threshold      ...     2.500000e-12

Calculating pre-screening integrals         ... done (  0.1 sec) Dimension = 356
Organizing shell pair data                  ... done (  0.3 sec)
Shell pair information
Total number of shell pairs                 ...     63546
Shell pairs after pre-screening             ...     43279
Total number of primitive shell pairs       ...    176069
Primitive shell pairs kept                  ...     82278
          la=0 lb=0:   9642 shell pairs
          la=1 lb=0:  12422 shell pairs
          la=1 lb=1:   4074 shell pairs
          la=2 lb=0:   6722 shell pairs
          la=2 lb=1:   4402 shell pairs
          la=2 lb=2:   1177 shell pairs
          la=3 lb=0:   2335 shell pairs
          la=3 lb=1:   1540 shell pairs
          la=3 lb=2:    806 shell pairs
          la=3 lb=3:    159 shell pairs

Calculating one electron integrals          ... done (  0.1 sec)
Calculating RI/J V-Matrix + Cholesky decomp.... done (  0.2 sec)
Calculating Nuclear repulsion               ... done (  0.0 sec) ENN=   1858.549149407841 Eh

SHARK setup successfully completed in   1.2 seconds

Maximum memory used throughout the entire GTOINT-calculation: 66.1 MB
[1695247010.922550] [nc10354:1705067:0]          mpool.c:42   UCX  WARN  object 0xbdb9b40 was not returned to mpool ucp_requests
[1695247010.922565] [nc10354:1705067:0]          mpool.c:42   UCX  WARN  object 0xbdb9d00 was not returned to mpool ucp_requests
[1695247010.922570] [nc10354:1705067:0]          mpool.c:42   UCX  WARN  object 0xbdb9ec0 was not returned to mpool ucp_requests
[1695247010.922575] [nc10354:1705067:0]          mpool.c:42   UCX  WARN  object 0xbdba080 was not returned to mpool ucp_requests
[1695247010.922578] [nc10354:1705067:0]          mpool.c:42   UCX  WARN  object 0xbdba240 was not returned to mpool ucp_requests
[1695247010.922582] [nc10354:1705067:0]          mpool.c:42   UCX  WARN  object 0xbdba400 was not returned to mpool ucp_requests
[1695247010.922585] [nc10354:1705067:0]          mpool.c:42   UCX  WARN  object 0xbdba5c0 was not returned to mpool ucp_requests
[1695247010.922588] [nc10354:1705067:0]          mpool.c:42   UCX  WARN  object 0xbdba780 was not returned to mpool ucp_requests
[1695247010.922591] [nc10354:1705067:0]          mpool.c:42   UCX  WARN  object 0xbdba940 was not returned to mpool ucp_requests
[1695247010.922593] [nc10354:1705067:0]          mpool.c:42   UCX  WARN  object 0xbdbab00 was not returned to mpool ucp_requests
[1695247010.923401] [nc10354:1705063:0]          mpool.c:42   UCX  WARN  object 0xab00680 was not returned to mpool ucp_requests
[1695247010.923417] [nc10354:1705063:0]          mpool.c:42   UCX  WARN  object 0xab00840 was not returned to mpool ucp_requests
[1695247010.923423] [nc10354:1705063:0]          mpool.c:42   UCX  WARN  object 0xab00a00 was not returned to mpool ucp_requests
[1695247010.923428] [nc10354:1705063:0]          mpool.c:42   UCX  WARN  object 0xab00bc0 was not returned to mpool ucp_requests
[1695247010.923432] [nc10354:1705063:0]          mpool.c:42   UCX  WARN  object 0xab00d80 was not returned to mpool ucp_requests
[1695247010.923437] [nc10354:1705063:0]          mpool.c:42   UCX  WARN  object 0xab00f40 was not returned to mpool ucp_requests
[1695247010.923441] [nc10354:1705063:0]          mpool.c:42   UCX  WARN  object 0xab01100 was not returned to mpool ucp_requests
[1695247010.923445] [nc10354:1705063:0]          mpool.c:42   UCX  WARN  object 0xab012c0 was not returned to mpool ucp_requests
[1695247010.923448] [nc10354:1705063:0]          mpool.c:42   UCX  WARN  object 0xab01480 was not returned to mpool ucp_requests
[1695247010.923452] [nc10354:1705063:0]          mpool.c:42   UCX  WARN  object 0xab01640 was not returned to mpool ucp_requests
[1695247010.923748] [nc10354:1705060:0]          mpool.c:42   UCX  WARN  object 0xb392080 was not returned to mpool ucp_requests
[1695247010.923766] [nc10354:1705060:0]          mpool.c:42   UCX  WARN  object 0xb392240 was not returned to mpool ucp_requests
[1695247010.923771] [nc10354:1705060:0]          mpool.c:42   UCX  WARN  object 0xb392400 was not returned to mpool ucp_requests
[1695247010.923775] [nc10354:1705060:0]          mpool.c:42   UCX  WARN  object 0xb3925c0 was not returned to mpool ucp_requests
[1695247010.923780] [nc10354:1705060:0]          mpool.c:42   UCX  WARN  object 0xb392780 was not returned to mpool ucp_requests
[1695247010.923783] [nc10354:1705060:0]          mpool.c:42   UCX  WARN  object 0xb392940 was not returned to mpool ucp_requests
[1695247010.923787] [nc10354:1705060:0]          mpool.c:42   UCX  WARN  object 0xb392b00 was not returned to mpool ucp_requests
[1695247010.923791] [nc10354:1705060:0]          mpool.c:42   UCX  WARN  object 0xb392cc0 was not returned to mpool ucp_requests
[1695247010.923794] [nc10354:1705060:0]          mpool.c:42   UCX  WARN  object 0xb392e80 was not returned to mpool ucp_requests
[1695247010.923799] [nc10354:1705060:0]          mpool.c:42   UCX  WARN  object 0xb393040 was not returned to mpool ucp_requests
[1695247010.924034] [nc10354:1705057:0]          mpool.c:42   UCX  WARN  object 0xb263140 was not returned to mpool ucp_requests
[1695247010.924048] [nc10354:1705057:0]          mpool.c:42   UCX  WARN  object 0xb263300 was not returned to mpool ucp_requests
[1695247010.924051] [nc10354:1705057:0]          mpool.c:42   UCX  WARN  object 0xb2634c0 was not returned to mpool ucp_requests
[1695247010.924054] [nc10354:1705057:0]          mpool.c:42   UCX  WARN  object 0xb263680 was not returned to mpool ucp_requests
[1695247010.924056] [nc10354:1705057:0]          mpool.c:42   UCX  WARN  object 0xb263840 was not returned to mpool ucp_requests
[1695247010.924058] [nc10354:1705057:0]          mpool.c:42   UCX  WARN  object 0xb263a00 was not returned to mpool ucp_requests
[1695247010.924064] [nc10354:1705057:0]          mpool.c:42   UCX  WARN  object 0xb263bc0 was not returned to mpool ucp_requests
[1695247010.924068] [nc10354:1705057:0]          mpool.c:42   UCX  WARN  object 0xb263d80 was not returned to mpool ucp_requests
[1695247010.924071] [nc10354:1705057:0]          mpool.c:42   UCX  WARN  object 0xb263f40 was not returned to mpool ucp_requests
[1695247010.924073] [nc10354:1705057:0]          mpool.c:42   UCX  WARN  object 0xb264100 was not returned to mpool ucp_requests
[1695247010.924470] [nc10354:1705070:0]          mpool.c:42   UCX  WARN  object 0xc2e6840 was not returned to mpool ucp_requests
[1695247010.924483] [nc10354:1705070:0]          mpool.c:42   UCX  WARN  object 0xc2e6a00 was not returned to mpool ucp_requests
[1695247010.924486] [nc10354:1705070:0]          mpool.c:42   UCX  WARN  object 0xc2e6bc0 was not returned to mpool ucp_requests
[1695247010.924489] [nc10354:1705070:0]          mpool.c:42   UCX  WARN  object 0xc2e6d80 was not returned to mpool ucp_requests
[1695247010.924492] [nc10354:1705070:0]          mpool.c:42   UCX  WARN  object 0xc2e6f40 was not returned to mpool ucp_requests
[1695247010.924494] [nc10354:1705070:0]          mpool.c:42   UCX  WARN  object 0xc2e7100 was not returned to mpool ucp_requests
[1695247010.924496] [nc10354:1705070:0]          mpool.c:42   UCX  WARN  object 0xc2e72c0 was not returned to mpool ucp_requests
[1695247010.924500] [nc10354:1705070:0]          mpool.c:42   UCX  WARN  object 0xc2e7480 was not returned to mpool ucp_requests
[1695247010.924502] [nc10354:1705070:0]          mpool.c:42   UCX  WARN  object 0xc2e7640 was not returned to mpool ucp_requests
[1695247010.924505] [nc10354:1705070:0]          mpool.c:42   UCX  WARN  object 0xc2e7800 was not returned to mpool ucp_requests
[1695247010.924371] [nc10354:1705058:0]          mpool.c:42   UCX  WARN  object 0xbaa7bc0 was not returned to mpool ucp_requests
[1695247010.924397] [nc10354:1705058:0]          mpool.c:42   UCX  WARN  object 0xbaa7d80 was not returned to mpool ucp_requests
[1695247010.924401] [nc10354:1705058:0]          mpool.c:42   UCX  WARN  object 0xbaa7f40 was not returned to mpool ucp_requests
[1695247010.924403] [nc10354:1705058:0]          mpool.c:42   UCX  WARN  object 0xbaa8100 was not returned to mpool ucp_requests
[1695247010.924406] [nc10354:1705058:0]          mpool.c:42   UCX  WARN  object 0xbaa82c0 was not returned to mpool ucp_requests
[1695247010.924408] [nc10354:1705058:0]          mpool.c:42   UCX  WARN  object 0xbaa8480 was not returned to mpool ucp_requests
[1695247010.924410] [nc10354:1705058:0]          mpool.c:42   UCX  WARN  object 0xbaa8640 was not returned to mpool ucp_requests
[1695247010.924413] [nc10354:1705058:0]          mpool.c:42   UCX  WARN  object 0xbaa8800 was not returned to mpool ucp_requests
[1695247010.924416] [nc10354:1705058:0]          mpool.c:42   UCX  WARN  object 0xbaa89c0 was not returned to mpool ucp_requests
[1695247010.924418] [nc10354:1705058:0]          mpool.c:42   UCX  WARN  object 0xbaa8b80 was not returned to mpool ucp_requests
[1695247010.924810] [nc10354:1705055:0]          mpool.c:42   UCX  WARN  object 0xbfb2540 was not returned to mpool ucp_requests
[1695247010.924822] [nc10354:1705055:0]          mpool.c:42   UCX  WARN  object 0xbfb2700 was not returned to mpool ucp_requests
[1695247010.924825] [nc10354:1705055:0]          mpool.c:42   UCX  WARN  object 0xbfb28c0 was not returned to mpool ucp_requests
[1695247010.924828] [nc10354:1705055:0]          mpool.c:42   UCX  WARN  object 0xbfb2c40 was not returned to mpool ucp_requests
[1695247010.924830] [nc10354:1705055:0]          mpool.c:42   UCX  WARN  object 0xbfb2e00 was not returned to mpool ucp_requests
[1695247010.924833] [nc10354:1705055:0]          mpool.c:42   UCX  WARN  object 0xbfb2fc0 was not returned to mpool ucp_requests


           ************************************************************
           *        Program running with 8 parallel MPI-processes     *
           *              working on a common directory               *
           ************************************************************
-------------------------------------------------------------------------------
                                 ORCA SCF
-------------------------------------------------------------------------------

------------
SCF SETTINGS
------------
Hamiltonian:
 Density Functional     Method          .... DFT(GTOs)
 Exchange Functional    Exchange        .... WB97X-D3
 Correlation Functional Correlation     .... WB97X-D3
 Gradients option       PostSCFGGA      .... off
 Hybrid DFT is turned on
   Fraction HF Exchange ScalHFX         ....  0.195728
   Scaling of DF-GGA-X  ScalDFX         ....  0.000000
   Scaling of DF-GGA-C  ScalDFC         ....  1.000000
   Scaling of DF-LDA-C  ScalLDAC        ....  1.000000
   Perturbative correction              ....  0.000000
   Density functional embedding theory  .... OFF
 Long-range corrected/Screened/Range-Separated Hybrid DFT is turned on
   Amount of maximum screened exact exchange              ....  0.804272
   Range separation parameter mu (erf(mu*r12)/r12)        ....  0.250000
 RI-approximation to the Coulomb term is turned on
   Number of AuxJ basis functions       .... 1287
   RIJ-COSX (HFX calculated with COS-X)).... on


General Settings:
 Integral files         IntName         .... Fluoxetine_35
 Hartree-Fock type      HFTyp           .... RHF
 Total Charge           Charge          ....    1
 Multiplicity           Mult            ....    1
 Number of Electrons    NEL             ....  162
 Basis Dimension        Dim             ....  948
 Nuclear Repulsion      ENuc            ....   1858.5491494078 Eh

Convergence Acceleration:
 DIIS                   CNVDIIS         .... on
   Start iteration      DIISMaxIt       ....    12
   Startup error        DIISStart       ....  0.200000
   # of expansion vecs  DIISMaxEq       ....     5
   Bias factor          DIISBfac        ....   1.050
   Max. coefficient     DIISMaxC        ....  10.000
 Trust-Rad. Augm. Hess. CNVTRAH         .... auto
   Auto Start mean grad. ratio tolernc. ....  1.125000
   Auto Start start iteration           ....    20
   Auto Start num. interpolation iter.  ....    10
   Max. Number of Micro iterations      ....    16
   Max. Number of Macro iterations      .... Maxiter - #DIIS iter
   Number of Davidson start vectors     ....     2
   Converg. threshold I  (grad. norm)   ....   1.000e-05
   Converg. threshold II (energy diff.) ....   1.000e-08
   Grad. Scal. Fac. for Micro threshold ....   0.100
   Minimum threshold for Micro iter.    ....   0.010
   NR start threshold (gradient norm)   ....   0.001
   Initial trust radius                 ....   0.400
   Minimum AH scaling param. (alpha)    ....   1.000
   Maximum AH scaling param. (alpha)    .... 1000.000
   Orbital update algorithm             .... Taylor
   White noise on init. David. guess    .... on
   Maximum white noise                  ....   0.010
   Quad. conv. algorithm                .... NR
 SOSCF                  CNVSOSCF        .... on
   Start iteration      SOSCFMaxIt      ....   150
   Startup grad/error   SOSCFStart      ....  0.003300
 Level Shifting         CNVShift        .... on
   Level shift para.    LevelShift      ....    0.2500
   Turn off err/grad.   ShiftErr        ....    0.0010
 Zerner damping         CNVZerner       .... off
 Static damping         CNVDamp         .... on
   Fraction old density DampFac         ....    0.7000
   Max. Damping (<1)    DampMax         ....    0.9800
   Min. Damping (>=0)   DampMin         ....    0.0000
   Turn off err/grad.   DampErr         ....    0.1000
 Fernandez-Rico         CNVRico         .... off

SCF Procedure:
 Maximum # iterations   MaxIter         ....   125
 SCF integral mode      SCFMode         .... Direct
   Integral package                     .... SHARK and LIBINT hybrid scheme
 Reset frequency        DirectResetFreq ....    20
 Integral Threshold     Thresh          ....  2.500e-11 Eh
 Primitive CutOff       TCut            ....  2.500e-12 Eh

Convergence Tolerance:
 Convergence Check Mode ConvCheckMode   .... Total+1el-Energy
 Convergence forced     ConvForced      .... 0
 Energy Change          TolE            ....  1.000e-08 Eh
 1-El. energy change                    ....  1.000e-05 Eh
 Orbital Gradient       TolG            ....  1.000e-05
 Orbital Rotation angle TolX            ....  1.000e-05
 DIIS Error             TolErr          ....  5.000e-07


Diagonalization of the overlap matrix:
Smallest eigenvalue                        ... 6.069e-06
Time for diagonalization                   ...    0.174 sec
Threshold for overlap eigenvalues          ... 1.000e-08
Number of eigenvalues below threshold      ... 0
Time for construction of square roots      ...    0.103 sec
Total time needed                          ...    0.281 sec

Time for model grid setup =    0.299 sec

------------------------------
INITIAL GUESS: MODEL POTENTIAL
------------------------------
Loading Hartree-Fock densities                     ... done
Calculating cut-offs                               ... done
Initializing the effective Hamiltonian             ... done
Setting up the integral package (SHARK)            ... done
Starting the Coulomb interaction                   ... done (   0.7 sec)
Reading the grid                                   ... done
Mapping shells                                     ... done
Starting the XC term evaluation                    ... done (   0.3 sec)
  promolecular density results
     # of electrons  =    162.988722883
     EX              =   -137.399718068
     EC              =     -5.522426801
     EX+EC           =   -142.922144869
Transforming the Hamiltonian                       ... done (   0.1 sec)
Diagonalizing the Hamiltonian                      ... done (   0.2 sec)
Back transforming the eigenvectors                 ... done (   0.0 sec)
Now organizing SCF variables                       ... done
                      ------------------
                      INITIAL GUESS DONE (   1.6 sec)
                      ------------------
-------------------
DFT GRID GENERATION
-------------------

General Integration Accuracy     IntAcc      ... 4.959
Radial Grid Type                 RadialGrid  ... OptM3 with GC (2021)
Angular Grid (max. ang.)         AngularGrid ... 6 (Lebedev-590)
Angular grid pruning method      GridPruning ... 4 (adaptive)
Weight generation scheme         WeightScheme... Becke
Basis function cutoff            BFCut       ... 1.0000e-11
Integration weight cutoff        WCut        ... 1.0000e-14
Angular grids for H and He will be reduced by one unit
Partially contracted basis set               ... off
Rotationally invariant grid construction     ... off

Total number of grid points                  ...   472666
Total number of batches                      ...     7405
Average number of points per batch           ...       63
Average number of grid points per atom       ...    11528
Time for grid setup =    5.761 sec

--------------------
COSX GRID GENERATION
--------------------

GRIDX 1
-------
General Integration Accuracy     IntAcc      ... 4.020
Radial Grid Type                 RadialGrid  ... OptM3 with GC (2021)
Angular Grid (max. ang.)         AngularGrid ... 2 (Lebedev-110)
Angular grid pruning method      GridPruning ... 4 (adaptive)
Weight generation scheme         WeightScheme... Becke
Basis function cutoff            BFCut       ... 1.0000e-11
Integration weight cutoff        WCut        ... 1.0000e-14
Angular grids for H and He will be reduced by one unit
Partially contracted basis set               ... on
Rotationally invariant grid construction     ... off

Total number of grid points                  ...    52436
Total number of batches                      ...      841
Average number of points per batch           ...       62
Average number of grid points per atom       ...     1279
UseSFitting                                  ... on

GRIDX 2
-------
General Integration Accuracy     IntAcc      ... 4.338
Radial Grid Type                 RadialGrid  ... OptM3 with GC (2021)
Angular Grid (max. ang.)         AngularGrid ... 3 (Lebedev-194)
Angular grid pruning method      GridPruning ... 4 (adaptive)
Weight generation scheme         WeightScheme... Becke
Basis function cutoff            BFCut       ... 1.0000e-11
Integration weight cutoff        WCut        ... 1.0000e-14
Angular grids for H and He will be reduced by one unit
Partially contracted basis set               ... on
Rotationally invariant grid construction     ... off

Total number of grid points                  ...   114642
Total number of batches                      ...     1812
Average number of points per batch           ...       63
Average number of grid points per atom       ...     2796
UseSFitting                                  ... on

GRIDX 3
-------
General Integration Accuracy     IntAcc      ... 4.871
Radial Grid Type                 RadialGrid  ... OptM3 with GC (2021)
Angular Grid (max. ang.)         AngularGrid ... 4 (Lebedev-302)
Angular grid pruning method      GridPruning ... 4 (adaptive)
Weight generation scheme         WeightScheme... Becke
Basis function cutoff            BFCut       ... 1.0000e-11
Integration weight cutoff        WCut        ... 1.0000e-14
Angular grids for H and He will be reduced by one unit
Partially contracted basis set               ... on
Rotationally invariant grid construction     ... off

Total number of grid points                  ...   215379
Total number of batches                      ...     3386
Average number of points per batch           ...       63
Average number of grid points per atom       ...     5253
UseSFitting                                  ... on

Time for X-Grid setup             =    3.754 sec

--------------
SCF ITERATIONS
--------------
ITER       Energy         Delta-E        Max-DP      RMS-DP      [F,P]     Damp
               ***  Starting incremental Fock matrix formation  ***
  0  -1088.2329579785   0.000000000000 0.02855939  0.00040255  0.1479388 0.7000
  1  -1088.4004240360  -0.167466057470 0.02402092  0.00033070  0.0810475 0.7000
                               ***Turning on DIIS***
  2  -1088.4871684744  -0.086744438387 0.04735648  0.00074585  0.0419882 0.0000
  3  -1088.6327843471  -0.145615872662 0.02183765  0.00021060  0.0383661 0.0000
  4  -1088.6519271757  -0.019142828621 0.00630790  0.00008246  0.0046907 0.0000
  5  -1088.6523877085  -0.000460532865 0.00247985  0.00003061  0.0040744 0.0000
                      *** Initiating the SOSCF procedure ***
                           *** Shutting down DIIS ***
                      *** Re-Reading the Fockian *** 
                      *** Removing any level shift *** 
ITER      Energy       Delta-E        Grad      Rot      Max-DP    RMS-DP
  6  -1088.65247555  -0.0000878378  0.000347  0.000347  0.001456  0.000016
               *** Restarting incremental Fock matrix formation ***
  7  -1088.65248894  -0.0000133907  0.000270  0.000703  0.000610  0.000010
  8  -1088.65249254  -0.0000036079  0.000100  0.000331  0.000646  0.000007
  9  -1088.65249356  -0.0000010114  0.000040  0.000052  0.000198  0.000003
 10  -1088.65249377  -0.0000002125  0.000015  0.000030  0.000293  0.000003
 11  -1088.65249379  -0.0000000227  0.000006  0.000020  0.000171  0.000002
                  ***Gradient check signals convergence***
              ***Rediagonalizing the Fockian in SOSCF/NRSCF***

               *****************************************************
               *                     SUCCESS                       *
               *           SCF CONVERGED AFTER  12 CYCLES          *
               *****************************************************

Old exchange energy                            =    -44.809283146 Eh
New exchange energy                            =    -44.809284838 Eh
Exchange energy change after final integration =     -0.000001692 Eh
Total energy after final integration           =  -1088.652495477 Eh
Final COS-X integration done in                =    96.651 sec

----------------
TOTAL SCF ENERGY
----------------

Total Energy       :        -1088.65249548 Eh          -29623.74044 eV

Components:
Nuclear Repulsion  :         1858.54914941 Eh           50573.69347 eV
Electronic Energy  :        -2947.20164488 Eh          -80197.43392 eV
One Electron Energy:        -5161.42400942 Eh         -140449.48761 eV
Two Electron Energy:         2214.22236454 Eh           60252.05369 eV
Max COSX asymmetry :            0.00000070 Eh               0.00002 eV

Virial components:
Potential Energy   :        -2172.85503488 Eh          -59126.39143 eV
Kinetic Energy     :         1084.20253941 Eh           29502.65098 eV
Virial Ratio       :            2.00410436


DFT components:
N(Alpha)           :       80.999987505481 electrons
N(Beta)            :       80.999987505481 electrons
N(Total)           :      161.999975010963 electrons
E(XC)              :     -101.243711140749 Eh       
DFET-embed. en.    :        0.000000000000 Eh       

---------------
SCF CONVERGENCE
---------------

  Last Energy change         ...    6.9092e-09  Tolerance :   1.0000e-08
  Last MAX-Density change    ...    2.1094e-15  Tolerance :   1.0000e-07
  Last RMS-Density change    ...    1.1354e-17  Tolerance :   5.0000e-09
  Last Orbital Gradient      ...    1.5536e-06  Tolerance :   1.0000e-05
  Last Orbital Rotation      ...    6.8939e-06  Tolerance :   1.0000e-05

             **** THE GBW FILE WAS UPDATED (Fluoxetine_35.gbw) ****
             **** DENSITY Fluoxetine_35.scfp WAS UPDATED ****
             **** ENERGY FILE WAS UPDATED (Fluoxetine_35.en.tmp) ****
             **** THE GBW FILE WAS UPDATED (Fluoxetine_35.gbw) ****
             **** DENSITY Fluoxetine_35.scfp WAS UPDATED ****
----------------
ORBITAL ENERGIES
----------------

  NO   OCC          E(Eh)            E(eV) 
   0   2.0000     -24.893500      -677.3866 
   1   2.0000     -24.893038      -677.3740 
   2   2.0000     -24.887057      -677.2112 
   3   2.0000     -19.414498      -528.2953 
   4   2.0000     -14.700334      -400.0164 
   5   2.0000     -10.609441      -288.6976 
   6   2.0000     -10.498489      -285.6784 
   7   2.0000     -10.492002      -285.5019 
   8   2.0000     -10.488449      -285.4052 
   9   2.0000     -10.471451      -284.9427 
  10   2.0000     -10.445209      -284.2286 
  11   2.0000     -10.407287      -283.1967 
  12   2.0000     -10.406421      -283.1731 
  13   2.0000     -10.404169      -283.1118 
  14   2.0000     -10.403499      -283.0936 
  15   2.0000     -10.403016      -283.0805 
  16   2.0000     -10.400418      -283.0098 
  17   2.0000     -10.393726      -282.8277 
  18   2.0000     -10.389175      -282.7038 
  19   2.0000     -10.384839      -282.5858 
  20   2.0000     -10.383601      -282.5521 
  21   2.0000     -10.382239      -282.5151 
  22   2.0000      -1.511848       -41.1395 
  23   2.0000      -1.421406       -38.6784 
  24   2.0000      -1.414832       -38.4995 
  25   2.0000      -1.332430       -36.2573 
  26   2.0000      -1.288071       -35.0502 
  27   2.0000      -1.111239       -30.2383 
  28   2.0000      -1.098512       -29.8920 
  29   2.0000      -1.076737       -29.2995 
  30   2.0000      -1.023150       -27.8413 
  31   2.0000      -1.003033       -27.2939 
  32   2.0000      -0.992586       -27.0096 
  33   2.0000      -0.982770       -26.7425 
  34   2.0000      -0.975591       -26.5472 
  35   2.0000      -0.947352       -25.7788 
  36   2.0000      -0.914206       -24.8768 
  37   2.0000      -0.884209       -24.0605 
  38   2.0000      -0.869241       -23.6533 
  39   2.0000      -0.854671       -23.2568 
  40   2.0000      -0.838294       -22.8111 
  41   2.0000      -0.826967       -22.5029 
  42   2.0000      -0.806821       -21.9547 
  43   2.0000      -0.785100       -21.3637 
  44   2.0000      -0.780882       -21.2489 
  45   2.0000      -0.778557       -21.1856 
  46   2.0000      -0.775132       -21.0924 
  47   2.0000      -0.772918       -21.0322 
  48   2.0000      -0.752350       -20.4725 
  49   2.0000      -0.739696       -20.1281 
  50   2.0000      -0.720256       -19.5992 
  51   2.0000      -0.702161       -19.1068 
  52   2.0000      -0.691338       -18.8123 
  53   2.0000      -0.684008       -18.6128 
  54   2.0000      -0.675976       -18.3942 
  55   2.0000      -0.670968       -18.2580 
  56   2.0000      -0.666352       -18.1324 
  57   2.0000      -0.658184       -17.9101 
  58   2.0000      -0.655762       -17.8442 
  59   2.0000      -0.651343       -17.7240 
  60   2.0000      -0.650331       -17.6964 
  61   2.0000      -0.645061       -17.5530 
  62   2.0000      -0.644505       -17.5379 
  63   2.0000      -0.631895       -17.1947 
  64   2.0000      -0.626192       -17.0396 
  65   2.0000      -0.622497       -16.9390 
  66   2.0000      -0.615883       -16.7590 
  67   2.0000      -0.605834       -16.4856 
  68   2.0000      -0.601825       -16.3765 
  69   2.0000      -0.592130       -16.1127 
  70   2.0000      -0.588204       -16.0058 
  71   2.0000      -0.579099       -15.7581 
  72   2.0000      -0.565360       -15.3842 
  73   2.0000      -0.557658       -15.1747 
  74   2.0000      -0.550189       -14.9714 
  75   2.0000      -0.542358       -14.7583 
  76   2.0000      -0.536258       -14.5923 
  77   2.0000      -0.468286       -12.7427 
  78   2.0000      -0.452988       -12.3264 
  79   2.0000      -0.448625       -12.2077 
  80   2.0000      -0.442311       -12.0359 
  81   0.0000      -0.067172        -1.8278 
  82   0.0000      -0.066250        -1.8028 
  83   0.0000      -0.058950        -1.6041 
  84   0.0000      -0.047927        -1.3041 
  85   0.0000      -0.043297        -1.1782 
  86   0.0000      -0.018208        -0.4955 
  87   0.0000      -0.010532        -0.2866 
  88   0.0000       0.008512         0.2316 
  89   0.0000       0.015676         0.4266 
  90   0.0000       0.025863         0.7038 
  91   0.0000       0.027687         0.7534 
  92   0.0000       0.038226         1.0402 
  93   0.0000       0.039846         1.0843 
  94   0.0000       0.045528         1.2389 
  95   0.0000       0.053188         1.4473 
  96   0.0000       0.059310         1.6139 
  97   0.0000       0.067342         1.8325 
  98   0.0000       0.073034         1.9874 
  99   0.0000       0.078589         2.1385 
 100   0.0000       0.082685         2.2500 
 101   0.0000       0.086579         2.3559 
 102   0.0000       0.090341         2.4583 
 103   0.0000       0.095294         2.5931 
 104   0.0000       0.101676         2.7668 
 105   0.0000       0.107588         2.9276 
 106   0.0000       0.113128         3.0784 
 107   0.0000       0.115015         3.1297 
 108   0.0000       0.121492         3.3060 
 109   0.0000       0.126795         3.4503 
 110   0.0000       0.133815         3.6413 
 111   0.0000       0.140436         3.8215 
 112   0.0000       0.145007         3.9458 
 113   0.0000       0.148069         4.0292 
 114   0.0000       0.150045         4.0829 
 115   0.0000       0.157075         4.2742 
 116   0.0000       0.162659         4.4262 
 117   0.0000       0.165818         4.5121 
 118   0.0000       0.169729         4.6185 
 119   0.0000       0.177074         4.8184 
 120   0.0000       0.182440         4.9644 
 121   0.0000       0.185544         5.0489 
 122   0.0000       0.188667         5.1339 
 123   0.0000       0.196353         5.3430 
 124   0.0000       0.202828         5.5192 
 125   0.0000       0.203749         5.5443 
 126   0.0000       0.207838         5.6556 
 127   0.0000       0.211928         5.7669 
 128   0.0000       0.222197         6.0463 
 129   0.0000       0.226467         6.1625 
 130   0.0000       0.228834         6.2269 
 131   0.0000       0.232759         6.3337 
 132   0.0000       0.235214         6.4005 
 133   0.0000       0.240675         6.5491 
 134   0.0000       0.250311         6.8113 
 135   0.0000       0.255418         6.9503 
 136   0.0000       0.259197         7.0531 
 137   0.0000       0.264871         7.2075 
 138   0.0000       0.272656         7.4193 
 139   0.0000       0.274368         7.4659 
 140   0.0000       0.277342         7.5469 
 141   0.0000       0.278095         7.5673 
 142   0.0000       0.281364         7.6563 
 143   0.0000       0.290324         7.9001 
 144   0.0000       0.292764         7.9665 
 145   0.0000       0.302930         8.2431 
 146   0.0000       0.306617         8.3435 
 147   0.0000       0.311034         8.4637 
 148   0.0000       0.316864         8.6223 
 149   0.0000       0.321013         8.7352 
 150   0.0000       0.323637         8.8066 
 151   0.0000       0.329228         8.9587 
 152   0.0000       0.330811         9.0018 
 153   0.0000       0.335183         9.1208 
 154   0.0000       0.340066         9.2537 
 155   0.0000       0.345651         9.4056 
 156   0.0000       0.352188         9.5835 
 157   0.0000       0.353573         9.6212 
 158   0.0000       0.356520         9.7014 
 159   0.0000       0.361483         9.8364 
 160   0.0000       0.362325         9.8594 
 161   0.0000       0.364127         9.9084 
 162   0.0000       0.370273        10.0756 
 163   0.0000       0.374274        10.1845 
 164   0.0000       0.378288        10.2937 
 165   0.0000       0.386085        10.5059 
 166   0.0000       0.387365        10.5407 
 167   0.0000       0.392752        10.6873 
 168   0.0000       0.395582        10.7643 
 169   0.0000       0.402086        10.9413 
[...]
 11:     73.31   0.000486    2.46  0.002070  (-0.044004  0.008913 -0.007326)
 12:     91.91   0.000758    3.83  0.002574  (-0.044340  0.022888 -0.009193)
 13:     98.41   0.000704    3.56  0.002233  ( 0.010159 -0.035693 -0.029253)
 14:    125.36   0.000360    1.82  0.000896  (-0.015592 -0.001797  0.025481)
 15:    155.19   0.001292    6.53  0.002597  (-0.004168  0.048175  0.016097)
 16:    167.67   0.002167   10.95  0.004033  ( 0.002478  0.061027 -0.017395)
 17:    198.53   0.000590    2.98  0.000928  ( 0.005585 -0.028902 -0.007815)
 18:    228.41   0.000406    2.05  0.000555  (-0.020357 -0.001506 -0.011757)
 19:    235.15   0.001096    5.54  0.001454  (-0.005027 -0.035926  0.011742)
 20:    268.82   0.000198    1.00  0.000230  ( 0.004292  0.001702  0.014454)
 21:    276.63   0.000754    3.81  0.000851  ( 0.021941 -0.018051 -0.006591)
 22:    299.71   0.000023    0.12  0.000024  ( 0.002285 -0.004326 -0.000122)
 23:    328.39   0.003487   17.62  0.003314  ( 0.014531 -0.054268  0.012544)
 24:    332.33   0.000060    0.30  0.000056  ( 0.005836  0.004246 -0.002081)
 25:    404.88   0.000676    3.41  0.000521  (-0.006011  0.017663  0.013139)
 26:    415.56   0.000038    0.19  0.000029  (-0.002656 -0.004645  0.000297)
 27:    420.00   0.000104    0.53  0.000077  (-0.001180  0.000853 -0.008677)
 28:    426.87   0.000228    1.15  0.000167  ( 0.001957 -0.012472 -0.002714)
 29:    464.61   0.003108   15.71  0.002088  ( 0.023681 -0.039046 -0.001543)
 30:    470.94   0.000759    3.84  0.000503  ( 0.015318  0.008951 -0.013727)
 31:    488.05   0.001236    6.25  0.000790  ( 0.015075  0.022987 -0.005898)
 32:    528.68   0.000116    0.59  0.000069  (-0.005277  0.001632 -0.006184)
 33:    574.93   0.000406    2.05  0.000221  ( 0.012066 -0.006503 -0.005717)
 34:    582.24   0.000849    4.29  0.000455  (-0.019843 -0.000838  0.007785)
 35:    604.76   0.002134   10.78  0.001101  ( 0.031587  0.002006 -0.009962)
 36:    613.37   0.002409   12.18  0.001226  (-0.005572  0.031397 -0.014457)
 37:    636.83   0.000076    0.39  0.000037  ( 0.004816 -0.000712  0.003703)
 38:    649.51   0.000405    2.05  0.000194  (-0.003865 -0.011400 -0.007040)
 39:    689.98   0.003334   16.85  0.001508  (-0.036717  0.006074  0.011079)
 40:    727.38   0.008736   44.15  0.003748  (-0.057433 -0.009928  0.018730)
 41:    741.96   0.002528   12.77  0.001063  (-0.027965 -0.016558  0.002646)
 42:    768.10   0.000376    1.90  0.000153  (-0.006275  0.010643  0.000292)
 43:    774.26   0.006536   33.03  0.002634  (-0.044078 -0.019691  0.017425)
 44:    810.32   0.001696    8.57  0.000653  (-0.023661  0.008461  0.004643)
 45:    831.37   0.002617   13.23  0.000982  ( 0.008265  0.007836 -0.029201)
 46:    852.40   0.000928    4.69  0.000340  ( 0.016891  0.005133  0.005286)
 47:    860.69   0.000306    1.55  0.000111  ( 0.000953  0.007516 -0.007328)
 48:    878.48   0.001208    6.10  0.000429  (-0.000769 -0.020479  0.003000)
 49:    880.33   0.002350   11.87  0.000833  (-0.003012  0.025051 -0.014008)
 50:    886.07   0.011755   59.40  0.004140  (-0.007118  0.060056 -0.021966)
 51:    937.06   0.001420    7.18  0.000473  (-0.001328 -0.021318 -0.004088)
 52:    954.04   0.002736   13.83  0.000895  (-0.024693  0.016884  0.000334)
 53:    967.51   0.001893    9.56  0.000610  (-0.018671 -0.016179 -0.000152)
 54:   1004.20   0.000310    1.57  0.000096  ( 0.004170  0.006518 -0.006039)
 55:   1022.45   0.000234    1.18  0.000071  (-0.006193 -0.005736  0.000316)
 56:   1026.16   0.000499    2.52  0.000152  (-0.007514 -0.006997 -0.006797)
 57:   1027.95   0.003295   16.65  0.001000  (-0.023050 -0.020490 -0.007020)
 58:   1034.80   0.000610    3.08  0.000184  (-0.011169 -0.003745 -0.006716)
 59:   1039.04   0.005000   25.27  0.001502  (-0.038531 -0.002616  0.003174)
 60:   1051.76   0.003089   15.61  0.000917  ( 0.027221  0.013087  0.002067)
 61:   1055.24   0.007425   37.52  0.002196  ( 0.041866  0.020696  0.003835)
 62:   1070.90   0.000828    4.18  0.000241  (-0.014870 -0.000935 -0.004388)
 63:   1074.50   0.013274   67.08  0.003855  ( 0.049575  0.029422  0.023062)
 64:   1089.37   0.005885   29.74  0.001686  (-0.040333 -0.006461 -0.004174)
 65:   1109.63   0.016920   85.51  0.004758  (-0.061799 -0.000984  0.030631)
 66:   1129.19   0.000638    3.23  0.000176  ( 0.000230 -0.012329  0.004940)
 67:   1146.67   0.006446   32.57  0.001754  ( 0.000801 -0.011848 -0.040165)
 68:   1164.10   0.000113    0.57  0.000030  (-0.002140  0.004967  0.001021)
 69:   1179.52   0.002333   11.79  0.000617  (-0.023820  0.006347  0.003077)
 70:   1184.92   0.048681  246.01  0.012821  (-0.013391  0.099749 -0.051881)
 71:   1191.89   0.000043    0.22  0.000011  (-0.001429  0.002399  0.001873)
 72:   1210.32   0.018729   94.65  0.004829  (-0.067364 -0.008030 -0.015056)
 73:   1218.34   0.031188  157.61  0.007988  (-0.000536  0.045967  0.076650)
 74:   1221.58   0.001076    5.44  0.000275  (-0.013080 -0.010158 -0.000697)
 75:   1243.42   0.006202   31.34  0.001557  ( 0.037247 -0.012631 -0.003124)
 76:   1251.57   0.024915  125.91  0.006212  (-0.076437 -0.018672 -0.004583)
 77:   1293.90   0.010438   52.75  0.002517  ( 0.040163  0.029688  0.004789)
 78:   1305.30   0.003434   17.36  0.000821  ( 0.003734 -0.018540 -0.021527)
 79:   1330.03   0.001364    6.89  0.000320  ( 0.000326 -0.009843 -0.014931)
 80:   1330.45   0.007140   36.08  0.001675  ( 0.038427  0.013027  0.005325)
 81:   1347.70   0.001886    9.53  0.000437  ( 0.007823 -0.008329 -0.017496)
 82:   1353.28   0.003444   17.40  0.000794  (-0.028165  0.000054 -0.000900)
 83:   1354.85   0.068812  347.75  0.015849  ( 0.124369  0.004149 -0.019094)
 84:   1370.06   0.000577    2.91  0.000131  ( 0.004940  0.007780  0.006813)
 85:   1387.52   0.012216   61.74  0.002748  (-0.015362  0.049975  0.003746)
 86:   1409.60   0.001555    7.86  0.000344  ( 0.017058 -0.006936  0.002251)
 87:   1420.82   0.001411    7.13  0.000310  ( 0.011747  0.008698 -0.009811)
 88:   1428.99   0.000685    3.46  0.000150  ( 0.006073 -0.006324  0.008523)
 89:   1455.66   0.012121   61.25  0.002598  ( 0.008346  0.049047  0.011101)
 90:   1472.09   0.001193    6.03  0.000253  ( 0.002387  0.002218 -0.015562)
 91:   1477.86   0.001628    8.23  0.000344  (-0.002567 -0.017938 -0.003920)
 92:   1486.98   0.001920    9.70  0.000403  (-0.005022 -0.004054 -0.019005)
 93:   1504.75   0.005241   26.49  0.001087  ( 0.012217  0.023635  0.019471)
 94:   1505.96   0.002987   15.09  0.000619  ( 0.005883 -0.017489  0.016687)
 95:   1507.55   0.003265   16.50  0.000676  (-0.007665 -0.015173  0.019670)
 96:   1514.74   0.003881   19.61  0.000799  ( 0.027363 -0.006926 -0.001651)
 97:   1554.86   0.001630    8.24  0.000327  ( 0.000515 -0.017723 -0.003574)
 98:   1571.73   0.012080   61.05  0.002398  (-0.046815 -0.014375 -0.000294)
 99:   1669.98   0.005500   27.79  0.001028  (-0.016432  0.016740  0.021852)
100:   1670.50   0.000349    1.77  0.000065  ( 0.004803 -0.006438  0.000878)
101:   1682.57   0.020393  103.06  0.003782  (-0.046425  0.039903 -0.005896)
102:   1690.27   0.000133    0.67  0.000025  ( 0.003556  0.003190 -0.001303)
103:   1700.50   0.015984   80.77  0.002933  ( 0.053603  0.007735  0.000258)
104:   3068.25   0.001468    7.42  0.000149  ( 0.010790 -0.004355 -0.003737)
105:   3087.15   0.000983    4.97  0.000099  (-0.007897  0.000174  0.006076)
106:   3098.00   0.000517    2.61  0.000052  (-0.005187  0.004879  0.001179)
107:   3099.27   0.001119    5.66  0.000113  ( 0.005708 -0.008900 -0.000964)
108:   3140.36   0.000672    3.40  0.000067  ( 0.007767 -0.000234 -0.002531)
109:   3159.04   0.000664    3.36  0.000066  ( 0.000516  0.006274 -0.005097)
110:   3199.47   0.000138    0.70  0.000013  (-0.001242  0.003272 -0.001112)
111:   3201.89   0.000006    0.03  0.000001  ( 0.000690  0.000255 -0.000183)
112:   3202.50   0.000727    3.67  0.000071  ( 0.000506 -0.008362 -0.000823)
113:   3204.85   0.000414    2.09  0.000040  (-0.002332  0.004708 -0.003567)
114:   3208.35   0.000486    2.46  0.000047  (-0.006020  0.003172  0.001006)
115:   3215.22   0.000482    2.44  0.000047  (-0.001451  0.006685  0.000154)
116:   3221.53   0.000025    0.13  0.000002  ( 0.000605  0.000794  0.001201)
117:   3223.77   0.001280    6.47  0.000124  (-0.004069  0.003474 -0.009762)
118:   3233.35   0.000440    2.23  0.000043  ( 0.001185  0.006124  0.001895)
119:   3237.52   0.000185    0.94  0.000018  ( 0.004141 -0.000071  0.000834)
120:   3257.48   0.000196    0.99  0.000019  ( 0.002471 -0.003549 -0.000254)
121:   3340.25   0.068303  345.17  0.006381  ( 0.037433 -0.068933  0.015109)
122:   3501.56   0.007548   38.15  0.000673  (-0.015747 -0.009723  0.018171)

* The epsilon (eps) is given for a Dirac delta lineshape.
** The dipole moment derivative (T) already includes vibrational overlap.

The first frequency considered to be a vibration is 6
The total number of vibrations considered is 117


--------------------------
THERMOCHEMISTRY AT 298.15K
--------------------------

Temperature         ... 298.15 K
Pressure            ... 1.00 atm
Total Mass          ... 310.34 AMU

Throughout the following assumptions are being made:
  (1) The electronic state is orbitally nondegenerate
  (2) There are no thermally accessible electronically excited states
  (3) Hindered rotations indicated by low frequency modes are not
      treated as such but are treated as vibrations and this may
      cause some error
  (4) All equations used are the standard statistical mechanics
      equations for an ideal gas
  (5) All vibrations are strictly harmonic

freq.       6.43  E(vib)   ...       0.58 
freq.      15.02  E(vib)   ...       0.57 
freq.      31.77  E(vib)   ...       0.55 
freq.      41.97  E(vib)   ...       0.53 
freq.      57.10  E(vib)   ...       0.51 
freq.      73.31  E(vib)   ...       0.49 
freq.      91.91  E(vib)   ...       0.47 
freq.      98.41  E(vib)   ...       0.46 
freq.     125.36  E(vib)   ...       0.43 
freq.     155.19  E(vib)   ...       0.40 
freq.     167.67  E(vib)   ...       0.38 
freq.     198.53  E(vib)   ...       0.35 
freq.     228.41  E(vib)   ...       0.32 
freq.     235.15  E(vib)   ...       0.32 
freq.     268.82  E(vib)   ...       0.29 
freq.     276.63  E(vib)   ...       0.28 
freq.     299.71  E(vib)   ...       0.26 
freq.     328.39  E(vib)   ...       0.24 
freq.     332.33  E(vib)   ...       0.24 
freq.     404.88  E(vib)   ...       0.19 
freq.     415.56  E(vib)   ...       0.18 
freq.     420.00  E(vib)   ...       0.18 
freq.     426.87  E(vib)   ...       0.18 
freq.     464.61  E(vib)   ...       0.16 
freq.     470.94  E(vib)   ...       0.15 
freq.     488.05  E(vib)   ...       0.15 
freq.     528.68  E(vib)   ...       0.13 
freq.     574.93  E(vib)   ...       0.11 
freq.     582.24  E(vib)   ...       0.11 
freq.     604.76  E(vib)   ...       0.10 
freq.     613.37  E(vib)   ...       0.10 
freq.     636.83  E(vib)   ...       0.09 
freq.     649.51  E(vib)   ...       0.08 
freq.     689.98  E(vib)   ...       0.07 
freq.     727.38  E(vib)   ...       0.06 
freq.     741.96  E(vib)   ...       0.06 
freq.     768.10  E(vib)   ...       0.06 
freq.     774.26  E(vib)   ...       0.05 
freq.     810.32  E(vib)   ...       0.05 
freq.     831.37  E(vib)   ...       0.04 
freq.     852.40  E(vib)   ...       0.04 
freq.     860.69  E(vib)   ...       0.04 
freq.     878.48  E(vib)   ...       0.04 
freq.     880.33  E(vib)   ...       0.04 
freq.     886.07  E(vib)   ...       0.04 
freq.     937.06  E(vib)   ...       0.03 
freq.     954.04  E(vib)   ...       0.03 
freq.     967.51  E(vib)   ...       0.03 
freq.    1004.20  E(vib)   ...       0.02 
freq.    1022.45  E(vib)   ...       0.02 
freq.    1026.16  E(vib)   ...       0.02 
freq.    1027.95  E(vib)   ...       0.02 
freq.    1034.80  E(vib)   ...       0.02 
freq.    1039.04  E(vib)   ...       0.02 
freq.    1051.76  E(vib)   ...       0.02 
freq.    1055.24  E(vib)   ...       0.02 
freq.    1070.90  E(vib)   ...       0.02 
freq.    1074.50  E(vib)   ...       0.02 
freq.    1089.37  E(vib)   ...       0.02 
freq.    1109.63  E(vib)   ...       0.02 
freq.    1129.19  E(vib)   ...       0.01 
freq.    1146.67  E(vib)   ...       0.01 
freq.    1164.10  E(vib)   ...       0.01 
freq.    1179.52  E(vib)   ...       0.01 
freq.    1184.92  E(vib)   ...       0.01 
freq.    1191.89  E(vib)   ...       0.01 
freq.    1210.32  E(vib)   ...       0.01 
freq.    1218.34  E(vib)   ...       0.01 
freq.    1221.58  E(vib)   ...       0.01 
freq.    1243.42  E(vib)   ...       0.01 
freq.    1251.57  E(vib)   ...       0.01 
freq.    1293.90  E(vib)   ...       0.01 
freq.    1305.30  E(vib)   ...       0.01 
freq.    1330.03  E(vib)   ...       0.01 
freq.    1330.45  E(vib)   ...       0.01 
freq.    1347.70  E(vib)   ...       0.01 
freq.    1353.28  E(vib)   ...       0.01 
freq.    1354.85  E(vib)   ...       0.01 
freq.    1370.06  E(vib)   ...       0.01 
freq.    1387.52  E(vib)   ...       0.00 
freq.    1409.60  E(vib)   ...       0.00 
freq.    1420.82  E(vib)   ...       0.00 
freq.    1428.99  E(vib)   ...       0.00 
freq.    1455.66  E(vib)   ...       0.00 
freq.    1472.09  E(vib)   ...       0.00 
freq.    1477.86  E(vib)   ...       0.00 
freq.    1486.98  E(vib)   ...       0.00 
freq.    1504.75  E(vib)   ...       0.00 
freq.    1505.96  E(vib)   ...       0.00 
freq.    1507.55  E(vib)   ...       0.00 
freq.    1514.74  E(vib)   ...       0.00 
freq.    1554.86  E(vib)   ...       0.00 
freq.    1571.73  E(vib)   ...       0.00 
freq.    1669.98  E(vib)   ...       0.00 
freq.    1670.50  E(vib)   ...       0.00 
freq.    1682.57  E(vib)   ...       0.00 
freq.    1690.27  E(vib)   ...       0.00 
freq.    1700.50  E(vib)   ...       0.00 
freq.    3068.25  E(vib)   ...       0.00 
freq.    3087.15  E(vib)   ...       0.00 
freq.    3098.00  E(vib)   ...       0.00 
freq.    3099.27  E(vib)   ...       0.00 
freq.    3140.36  E(vib)   ...       0.00 
freq.    3159.04  E(vib)   ...       0.00 
freq.    3199.47  E(vib)   ...       0.00 
freq.    3201.89  E(vib)   ...       0.00 
freq.    3202.50  E(vib)   ...       0.00 
freq.    3204.85  E(vib)   ...       0.00 
freq.    3208.35  E(vib)   ...       0.00 
freq.    3215.22  E(vib)   ...       0.00 
freq.    3221.53  E(vib)   ...       0.00 
freq.    3223.77  E(vib)   ...       0.00 
freq.    3233.35  E(vib)   ...       0.00 
freq.    3237.52  E(vib)   ...       0.00 
freq.    3257.48  E(vib)   ...       0.00 
freq.    3340.25  E(vib)   ...       0.00 
freq.    3501.56  E(vib)   ...       0.00 

------------
INNER ENERGY
------------

The inner energy is: U= E(el) + E(ZPE) + E(vib) + E(rot) + E(trans)
    E(el)   - is the total energy from the electronic structure calculation
              = E(kin-el) + E(nuc-el) + E(el-el) + E(nuc-nuc)
    E(ZPE)  - the the zero temperature vibrational energy from the frequency calculation
    E(vib)  - the the finite temperature correction to E(ZPE) due to population
              of excited vibrational states
    E(rot)  - is the rotational thermal energy
    E(trans)- is the translational thermal energy

Summary of contributions to the inner energy U:
Electronic energy                ...  -1088.67673348 Eh
Zero point energy                ...      0.34017392 Eh     213.46 kcal/mol
Thermal vibrational correction   ...      0.01711209 Eh      10.74 kcal/mol
Thermal rotational correction    ...      0.00141627 Eh       0.89 kcal/mol
Thermal translational correction ...      0.00141627 Eh       0.89 kcal/mol
-----------------------------------------------------------------------
Total thermal energy                  -1088.31661494 Eh


Summary of corrections to the electronic energy:
(perhaps to be used in another calculation)
Total thermal correction                  0.01994463 Eh      12.52 kcal/mol
Non-thermal (ZPE) correction              0.34017392 Eh     213.46 kcal/mol
-----------------------------------------------------------------------
Total correction                          0.36011854 Eh     225.98 kcal/mol


--------
ENTHALPY
--------

The enthalpy is H = U + kB*T
                kB is Boltzmann's constant
Total free energy                 ...  -1088.31661494 Eh 
Thermal Enthalpy correction       ...      0.00094421 Eh       0.59 kcal/mol
-----------------------------------------------------------------------
Total Enthalpy                    ...  -1088.31567073 Eh


Note: Only C1 symmetry has been detected, increase convergence thresholds 
      if your molecule has a higher symmetry. Symmetry factor of 1.0 is   
      used for the rotational entropy correction. 
 

Note: Rotational entropy computed according to Herzberg 
Infrared and Raman Spectra, Chapter V,1, Van Nostrand Reinhold, 1945 
Point Group:  C1, Symmetry Number:   1  
Rotational constants in cm-1:     0.011044     0.006054     0.004431 

Vibrational entropy computed according to the QRRHO of S. Grimme
Chem.Eur.J. 2012 18 9955


-------
ENTROPY
-------

The entropy contributions are T*S = T*(S(el)+S(vib)+S(rot)+S(trans))
     S(el)   - electronic entropy
     S(vib)  - vibrational entropy
     S(rot)  - rotational entropy
     S(trans)- translational entropy
The entropies will be listed as multiplied by the temperature to get
units of energy

Electronic entropy                ...      0.00000000 Eh      0.00 kcal/mol
Vibrational entropy               ...      0.03132507 Eh     19.66 kcal/mol
Rotational entropy                ...      0.01660730 Eh     10.42 kcal/mol
Translational entropy             ...      0.02047516 Eh     12.85 kcal/mol
-----------------------------------------------------------------------
Final entropy term                ...      0.06840753 Eh     42.93 kcal/mol

In case the symmetry of your molecule has not been determined correctly
or in case you have a reason to use a different symmetry number we print 
out the resulting rotational entropy values for sn=1,12 :
 --------------------------------------------------------
|  sn= 1 | S(rot)=       0.01660730 Eh     10.42 kcal/mol|
|  sn= 2 | S(rot)=       0.01595284 Eh     10.01 kcal/mol|
|  sn= 3 | S(rot)=       0.01557001 Eh      9.77 kcal/mol|
|  sn= 4 | S(rot)=       0.01529838 Eh      9.60 kcal/mol|
|  sn= 5 | S(rot)=       0.01508770 Eh      9.47 kcal/mol|
|  sn= 6 | S(rot)=       0.01491555 Eh      9.36 kcal/mol|
|  sn= 7 | S(rot)=       0.01477001 Eh      9.27 kcal/mol|
|  sn= 8 | S(rot)=       0.01464393 Eh      9.19 kcal/mol|
|  sn= 9 | S(rot)=       0.01453272 Eh      9.12 kcal/mol|
|  sn=10 | S(rot)=       0.01443324 Eh      9.06 kcal/mol|
|  sn=11 | S(rot)=       0.01434325 Eh      9.00 kcal/mol|
|  sn=12 | S(rot)=       0.01426110 Eh      8.95 kcal/mol|
 --------------------------------------------------------


-------------------
GIBBS FREE ENERGY
-------------------

The Gibbs free energy is G = H - T*S

Total enthalpy                    ...  -1088.31567073 Eh 
Total entropy correction          ...     -0.06840753 Eh    -42.93 kcal/mol
-----------------------------------------------------------------------
Final Gibbs free energy         ...  -1088.38407826 Eh

For completeness - the Gibbs free energy minus the electronic energy
G-E(el)                           ...      0.29265522 Eh    183.64 kcal/mol


Timings for individual modules:

Sum of individual times         ...    33874.906 sec (= 564.582 min)
GTO integral calculation        ...       74.692 sec (=   1.245 min)   0.2 %
SCF iterations                  ...    21337.867 sec (= 355.631 min)  63.0 %
SCF Gradient evaluation         ...     5906.982 sec (=  98.450 min)  17.4 %
Geometry relaxation             ...        5.244 sec (=   0.087 min)   0.0 %
Analytical frequency calculation...     5073.974 sec (=  84.566 min)  15.0 %
CHELPG charge generation        ...     1476.148 sec (=  24.602 min)   4.4 %
                             ****ORCA TERMINATED NORMALLY****
TOTAL RUN TIME: 0 days 9 hours 25 minutes 17 seconds 475 msec
