
Lmod is automatically replacing "intel/2020.1.217" with "gcc/10.3.0".


Due to MODULEPATH changes, the following have been reloaded:
  1) blis/0.8.1     2) flexiblas/3.0.4

The following have been reloaded with a version change:
  1) gcccore/.9.3.0 => gcccore/.10.3.0        3) openmpi/4.0.3 => openmpi/4.1.1
  2) libfabric/1.10.1 => libfabric/1.12.1     4) ucx/1.8.0 => ucx/1.9.0

To execute ORCA, run: 
   ${EBROOTORCA}/orca orca.inp > orca.out

                                 *****************
                                 * O   R   C   A *
                                 *****************

                                            #,                                       
                                            ###                                      
                                            ####                                     
                                            #####                                    
                                            ######                                   
                                           ########,                                 
                                     ,,################,,,,,                         
                               ,,#################################,,                 
                          ,,##########################################,,             
                       ,#########################################, ''#####,          
                    ,#############################################,,   '####,        
                  ,##################################################,,,,####,       
                ,###########''''           ''''###############################       
              ,#####''   ,,,,##########,,,,          '''####'''          '####       
            ,##' ,,,,###########################,,,                        '##       
           ' ,,###''''                  '''############,,,                           
         ,,##''                                '''############,,,,        ,,,,,,###''
      ,#''                                            '''#######################'''  
     '                                                          ''''####''''         
             ,#######,   #######,   ,#######,      ##                                
            ,#'     '#,  ##    ##  ,#'     '#,    #''#        ######   ,####,        
            ##       ##  ##   ,#'  ##            #'  '#       #        #'  '#        
            ##       ##  #######   ##           ,######,      #####,   #    #        
            '#,     ,#'  ##    ##  '#,     ,#' ,#      #,         ##   #,  ,#        
             '#######'   ##     ##  '#######'  #'      '#     #####' # '####'        



                  #######################################################
                  #                        -***-                        #
                  #          Department of theory and spectroscopy      #
                  #    Directorship and core code : Frank Neese         #
                  #        Max Planck Institute fuer Kohlenforschung    #
                  #                Kaiser Wilhelm Platz 1               #
                  #                 D-45470 Muelheim/Ruhr               #
                  #                      Germany                        #
                  #                                                     #
                  #                  All rights reserved                #
                  #                        -***-                        #
                  #######################################################


                         Program Version 5.0.3 -  RELEASE  -


 With contributions from (in alphabetic order):
   Daniel Aravena         : Magnetic Suceptibility
   Michael Atanasov       : Ab Initio Ligand Field Theory (pilot matlab implementation)
   Alexander A. Auer      : GIAO ZORA, VPT2 properties, NMR spectrum
   Ute Becker             : Parallelization
   Giovanni Bistoni       : ED, misc. LED, open-shell LED, HFLD
   Martin Brehm           : Molecular dynamics
   Dmytro Bykov           : SCF Hessian
   Vijay G. Chilkuri      : MRCI spin determinant printing, contributions to CSF-ICE
   Dipayan Datta          : RHF DLPNO-CCSD density
   Achintya Kumar Dutta   : EOM-CC, STEOM-CC
   Dmitry Ganyushin       : Spin-Orbit,Spin-Spin,Magnetic field MRCI
   Miquel Garcia          : C-PCM and meta-GGA Hessian, CC/C-PCM, Gaussian charge scheme
   Yang Guo               : DLPNO-NEVPT2, F12-NEVPT2, CIM, IAO-localization
   Andreas Hansen         : Spin unrestricted coupled pair/coupled cluster methods
   Benjamin Helmich-Paris : MC-RPA, TRAH-SCF, COSX integrals
   Lee Huntington         : MR-EOM, pCC
   Robert Izsak           : Overlap fitted RIJCOSX, COSX-SCS-MP3, EOM
   Marcus Kettner         : VPT2
   Christian Kollmar      : KDIIS, OOCD, Brueckner-CCSD(T), CCSD density, CASPT2, CASPT2-K
   Simone Kossmann        : Meta GGA functionals, TD-DFT gradient, OOMP2, MP2 Hessian
   Martin Krupicka        : Initial AUTO-CI
   Lucas Lang             : DCDCAS
   Marvin Lechner         : AUTO-CI (C++ implementation), FIC-MRCC
   Dagmar Lenk            : GEPOL surface, SMD
   Dimitrios Liakos       : Extrapolation schemes; Compound Job, initial MDCI parallelization
   Dimitrios Manganas     : Further ROCIS development; embedding schemes
   Dimitrios Pantazis     : SARC Basis sets
   Anastasios Papadopoulos: AUTO-CI, single reference methods and gradients
   Taras Petrenko         : DFT Hessian,TD-DFT gradient, ASA, ECA, R-Raman, ABS, FL, XAS/XES, NRVS
   Peter Pinski           : DLPNO-MP2, DLPNO-MP2 Gradient
   Christoph Reimann      : Effective Core Potentials
   Marius Retegan         : Local ZFS, SOC
   Christoph Riplinger    : Optimizer, TS searches, QM/MM, DLPNO-CCSD(T), (RO)-DLPNO pert. Triples
   Tobias Risthaus        : Range-separated hybrids, TD-DFT gradient, RPA, STAB
   Michael Roemelt        : Original ROCIS implementation
   Masaaki Saitow         : Open-shell DLPNO-CCSD energy and density
   Barbara Sandhoefer     : DKH picture change effects
   Avijit Sen             : IP-ROCIS
   Kantharuban Sivalingam : CASSCF convergence, NEVPT2, FIC-MRCI
   Bernardo de Souza      : ESD, SOC TD-DFT
   Georgi Stoychev        : AutoAux, RI-MP2 NMR, DLPNO-MP2 response
   Willem Van den Heuvel  : Paramagnetic NMR
   Boris Wezisla          : Elementary symmetry handling
   Frank Wennmohs         : Technical directorship


 We gratefully acknowledge several colleagues who have allowed us to
 interface, adapt or use parts of their codes:
   Stefan Grimme, W. Hujo, H. Kruse, P. Pracht,  : VdW corrections, initial TS optimization,
                  C. Bannwarth, S. Ehlert          DFT functionals, gCP, sTDA/sTD-DF
   Ed Valeev, F. Pavosevic, A. Kumar             : LibInt (2-el integral package), F12 methods
   Garnet Chan, S. Sharma, J. Yang, R. Olivares  : DMRG
   Ulf Ekstrom                                   : XCFun DFT Library
   Mihaly Kallay                                 : mrcc  (arbitrary order and MRCC methods)
   Jiri Pittner, Ondrej Demel                    : Mk-CCSD
   Frank Weinhold                                : gennbo (NPA and NBO analysis)
   Christopher J. Cramer and Donald G. Truhlar   : smd solvation model
   Lars Goerigk                                  : TD-DFT with DH, B97 family of functionals
   V. Asgeirsson, H. Jonsson                     : NEB implementation
   FAccTs GmbH                                   : IRC, NEB, NEB-TS, DLPNO-Multilevel, CI-OPT
                                                   MM, QMMM, 2- and 3-layer-ONIOM, Crystal-QMMM,
                                                   LR-CPCM, SF, NACMEs, symmetry and pop. for TD-DFT,
                                                   nearIR, NL-DFT gradient (VV10), updates on ESD,
                                                   ML-optimized integration grids
   S Lehtola, MJT Oliveira, MAL Marques          : LibXC Library
   Liviu Ungur et al                             : ANISO software


 Your calculation uses the libint2 library for the computation of 2-el integrals
 For citations please refer to: http://libint.valeyev.net

 Your ORCA version has been built with support for libXC version: 5.1.0
 For citations please refer to: https://tddft.org/programs/libxc/

 This ORCA versions uses:
   CBLAS   interface :  Fast vector & matrix operations
   LAPACKE interface :  Fast linear algebra routines
   SCALAPACK package :  Parallel linear algebra routines
   Shared memory     :  Shared parallel matrices
   BLAS/LAPACK       :  OpenBLAS 0.3.15  USE64BITINT DYNAMIC_ARCH NO_AFFINITY Zen SINGLE_THREADED
        Core in use  :  Zen
   Copyright (c) 2011-2014, The OpenBLAS Project


Your calculation utilizes the atom-pairwise dispersion correction
with the zero-damping scheme (D30)
Cite in your paper:
S.Grimme, J.Antony, S.Ehrlich and H.Krieg, J.Chem.Phys., 132, (2010), 154104 
   

XCFun DFT library Copyright 2009-2010 Ulf Ekstrom and contributors.
See http://admol.org/xcfun for more information.
This is free software; see the source code for copying conditions.
There is ABSOLUTELY NO WARRANTY; not even for MERCHANTABILITY or FITNESS FOR A PARTICULAR PURPOSE.
For details see the documentation.
Scientific users of this library should cite U. Ekstrom, L. Visscher, R. Bast, A. J. Thorvaldsen and K. Ruud;
J.Chem.Theor.Comp. 2010, DOI: 10.1021/ct100117s
XCFun Version 0.99 

================================================================================

----- Orbital basis set information -----
Your calculation utilizes the basis: def2-TZVPP
   F. Weigend and R. Ahlrichs, Phys. Chem. Chem. Phys. 7, 3297 (2005).

----- AuxJ basis set information -----
Your calculation utilizes the auxiliary basis: def2/J
   F. Weigend, Phys. Chem. Chem. Phys. 8, 1057 (2006).

================================================================================
                                        WARNINGS
                       Please study these warnings very carefully!
================================================================================


WARNING: Geometry Optimization
  ===> : Switching off AutoStart
         For restart on a previous wavefunction, please use MOREAD

INFO   : the flag for use of the SHARK integral package has been found!

================================================================================
                                       INPUT FILE
================================================================================
NAME = Fluoxetine_16.inp
|  1> ! wB97X-D3 TightOpt Freq def2-TZVPP def2/J RIJCOSX TightSCF defgrid3 CHELPG
|  2> %maxcore 3200
|  3> 
|  4> %pal nprocs 8 
|  5> end
|  6> 
|  7> %chelpg
|  8> grid 0.1
|  9> rmax 3.0
| 10> end
| 11> 
| 12> 
| 13> *xyz 1 1
| 14>  C    -3.6101077683    2.8748967342    -1.3698301904
| 15>  N    -2.9223437950    2.4577892272    -0.1381856578
| 16>  C    -3.7247005183    1.5625600877    0.7372400521
| 17>  C    -2.8069912275    0.8449183721    1.7197904834
| 18>  C    -1.8211020834    -0.0946658104    0.9933942465
| 19>  C    -2.5642715366    -1.1259157001    0.1650682491
| 20>  C    -3.1676422896    -2.1972476974    0.8131876492
| 21>  C    -3.8717249987    -3.1425943501    0.0901779227
| 22>  C    -3.9760461334    -3.0298471544    -1.2868510042
| 23>  C    -3.3696407590    -1.9704350802    -1.9380673595
| 24>  C    -2.6696363970    -1.0190601241    -1.2150510730
| 25>  O    -0.9633359826    0.7048590423    0.1660361838
| 26>  C    0.4060260944    0.5034393367    0.1992144173
| 27>  C    1.1128626211    0.3192944081    1.3797168661
| 28>  C    2.4884170156    0.1824053116    1.3385861958
| 29>  C    3.1524889253    0.2358720252    0.1223022346
| 30>  C    2.4484973245    0.4375260842    -1.0576409167
| 31>  C    1.0748888026    0.5693112555    -1.0181489357
| 32>  C    4.6536361299    0.1242835704    0.0726893692
| 33>  F    5.2301464602    1.3395079255    0.0225236080
| 34>  F    5.1600818201    -0.4968515647    1.1424991095
| 35>  F    5.0759191551    -0.5423468508    -1.0087125222
| 36>  H    -3.8577993438    1.9985631965    -1.9656265287
| 37>  H    -2.9695422984    3.5309041993    -1.9554544596
| 38>  H    -4.5297239459    3.4050962688    -1.1276729425
| 39>  H    -2.6357995535    3.2853345642    0.3948126068
| 40>  H    -4.2198645857    0.8238053020    0.1026609897
| 41>  H    -4.4852705150    2.1448952341    1.2598715092
| 42>  H    -3.4165901371    0.2482447802    2.3968644508
| 43>  H    -2.2482528877    1.5686355975    2.3170507056
| 44>  H    -1.2248089358    -0.6215091744    1.7441256025
| 45>  H    -3.0763582714    -2.2963267211    1.8847532942
| 46>  H    -4.3322773788    -3.9728809025    0.6017419243
| 47>  H    -4.5196089265    -3.7711300700    -1.8507077233
| 48>  H    -3.4359748278    -1.8837473476    -3.0116698142
| 49>  H    -2.1774474647    -0.2094300784    -1.7352155658
| 50>  H    0.6100814718    0.2920090117    2.3342349911
| 51>  H    3.0429985667    0.0366742488    2.2521900135
| 52>  H    2.9724259303    0.4783421320    -1.9995469364
| 53>  H    0.5153404538    0.7179464963    -1.9281024278
| 54>  H    -2.0470544725    1.9128799322    -0.3464556567
| 55> *
| 56> 
| 57> 
| 58>                          ****END OF INPUT****
================================================================================

                       *****************************
                       * Geometry Optimization Run *
                       *****************************

Geometry optimization settings:
Update method            Update   .... BFGS
Choice of coordinates    CoordSys .... Z-matrix Internals
Initial Hessian          InHess   .... Almoef's Model

Convergence Tolerances:
Energy Change            TolE     ....  1.0000e-06 Eh
Max. Gradient            TolMAXG  ....  1.0000e-04 Eh/bohr
RMS Gradient             TolRMSG  ....  3.0000e-05 Eh/bohr
Max. Displacement        TolMAXD  ....  1.0000e-03 bohr
RMS Displacement         TolRMSD  ....  6.0000e-04 bohr
Strict Convergence                ....  False
------------------------------------------------------------------------------
                        ORCA OPTIMIZATION COORDINATE SETUP
------------------------------------------------------------------------------

The optimization will be done in new redundant internal coordinates
Making redundant internal coordinates   ...  (new redundants) done
Evaluating the initial hessian          ...  (Almloef) done
Evaluating the coordinates              ...  done
Calculating the B-matrix                .... done
Calculating the G-matrix                .... done
Diagonalizing the G-matrix              .... done
Small eigenvalue found = 2.589e-03
Small eigenvalue found = 5.996e-03
Small eigenvalue found = 7.258e-03
Small eigenvalue found = 9.210e-03
Small eigenvalue found = 1.153e-02
Small eigenvalue found = 1.822e-02
The first mode is                       ....   99
The number of degrees of freedom        ....  117

    -----------------------------------------------------------------
                    Redundant Internal Coordinates


    -----------------------------------------------------------------
         Definition                    Initial Value    Approx d2E/dq
    -----------------------------------------------------------------
      1. B(N   1,C   0)                  1.4710         0.415516   
      2. B(C   2,N   1)                  1.4871         0.391649   
      3. B(C   3,C   2)                  1.5240         0.381887   
      4. B(C   4,C   3)                  1.5435         0.355476   
      5. B(C   5,C   4)                  1.5172         0.391558   
      6. B(C   6,C   5)                  1.3899         0.624989   
      7. B(C   7,C   6)                  1.3828         0.641526   
      8. B(C   8,C   7)                  1.3856         0.635048   
      9. B(C   9,C   8)                  1.3835         0.639817   
     10. B(C  10,C   9)                  1.3849         0.636676   
     11. B(C  10,C   5)                  1.3883         0.628817   
     12. B(O  11,C   4)                  1.4351         0.474149   
     13. B(C  12,O  11)                  1.3845         0.571032   
     14. B(C  13,C  12)                  1.3882         0.628930   
     15. B(C  14,C  13)                  1.3830         0.641164   
     16. B(C  15,C  14)                  1.3868         0.632199   
     17. B(C  16,C  15)                  1.3887         0.627749   
     18. B(C  17,C  16)                  1.3805         0.647032   
     19. B(C  17,C  12)                  1.3906         0.623485   
     20. B(C  18,C  15)                  1.5061         0.407848   
     21. B(F  19,C  18)                  1.3460         0.611230   
     22. B(F  20,C  18)                  1.3367         0.632398   
     23. B(F  21,C  18)                  1.3387         0.627760   
     24. B(H  22,C   0)                  1.0882         0.362424   
     25. B(H  23,C   0)                  1.0879         0.362828   
     26. B(H  24,C   0)                  1.0888         0.361715   
     27. B(H  25,N   1)                  1.0252         0.409215   
     28. B(H  26,C   2)                  1.0925         0.356760   
     29. B(H  27,C   2)                  1.0912         0.358512   
     30. B(H  28,C   3)                  1.0891         0.361341   
     31. B(H  29,C   3)                  1.0921         0.357337   
     32. B(H  30,C   4)                  1.0940         0.354912   
     33. B(H  31,C   6)                  1.0800         0.373573   
     34. B(H  32,C   7)                  1.0785         0.375626   
     35. B(H  33,C   8)                  1.0784         0.375810   
     36. B(H  34,C   9)                  1.0791         0.374761   
     37. B(H  35,C  10)                  1.0809         0.372356   
     38. B(H  36,C  13)                  1.0792         0.374696   
     39. B(H  37,C  14)                  1.0786         0.375442   
     40. B(H  38,C  16)                  1.0786         0.375516   
     41. B(H  39,C  17)                  1.0785         0.375613   
     42. B(H  40,N   1)                  1.0519         0.371015   
     43. A(N   1,C   0,H  22)          109.6619         0.328420   
     44. A(H  22,C   0,H  24)          108.7635         0.291338   
     45. A(N   1,C   0,H  24)          110.2890         0.328314   
     46. A(H  22,C   0,H  23)          108.9577         0.291479   
     47. A(H  23,C   0,H  24)          108.8684         0.291389   
     48. A(N   1,C   0,H  23)          110.2660         0.328480   
     49. A(C   0,N   1,C   2)          114.2869         0.368405   
     50. A(C   0,N   1,H  25)          109.6996         0.332223   
     51. A(C   2,N   1,H  25)          109.3099         0.328988   
     52. A(C   2,N   1,H  40)          104.6944         0.323724   
     53. A(H  25,N   1,H  40)          106.7695         0.293328   
     54. A(C   0,N   1,H  40)          111.7255         0.326888   
     55. A(N   1,C   2,H  27)          109.6783         0.324656   
     56. A(C   3,C   2,H  26)          109.2068         0.324996   
     57. A(H  26,C   2,H  27)          108.8532         0.290213   
     58. A(N   1,C   2,C   3)          109.7611         0.365393   
     59. A(N   1,C   2,H  26)          108.0389         0.324395   
     60. A(C   3,C   2,H  27)          111.2368         0.325257   
     61. A(C   2,C   3,H  29)          110.4028         0.325082   
     62. A(C   2,C   3,H  28)          108.7688         0.325678   
     63. A(C   4,C   3,H  29)          109.5108         0.321283   
     64. A(C   4,C   3,H  28)          108.4572         0.321870   
     65. A(H  28,C   3,H  29)          108.0257         0.290645   
     66. A(C   2,C   3,C   4)          111.5835         0.361640   
     67. A(C   5,C   4,H  30)          108.3198         0.326056   
     68. A(C   3,C   4,H  30)          108.5639         0.320926   
     69. A(O  11,C   4,H  30)          109.7640         0.334514   
     70. A(C   3,C   4,O  11)          108.2974         0.372970   
     71. A(C   3,C   4,C   5)          110.9665         0.363187   
     72. A(C   5,C   4,O  11)          110.8975         0.379252   
     73. A(C   4,C   5,C   6)          118.8139         0.400540   
     74. A(C   6,C   5,C  10)          119.3373         0.435799   
     75. A(C   4,C   5,C  10)          121.8445         0.400971   
     76. A(C   7,C   6,H  31)          119.9399         0.357176   
     77. A(C   5,C   6,H  31)          119.7806         0.355595   
     78. A(C   5,C   6,C   7)          120.2762         0.437373   
     79. A(C   6,C   7,H  32)          119.7176         0.357509   
     80. A(C   6,C   7,C   8)          120.1549         0.438635   
     81. A(C   8,C   7,H  32)          120.1254         0.356893   
     82. A(C   9,C   8,H  33)          120.0783         0.357376   
     83. A(C   7,C   8,H  33)          120.1104         0.356922   
     84. A(C   7,C   8,C   9)          119.8082         0.438424   
     85. A(C  10,C   9,H  34)          119.6888         0.356908   
     86. A(C   8,C   9,H  34)          120.1885         0.357207   
     87. A(C   8,C   9,C  10)          120.1222         0.438626   
     88. A(C   9,C  10,H  35)          119.5705         0.356518   
     89. A(C   5,C  10,H  35)          120.1001         0.355767   
     90. A(C   5,C  10,C   9)          120.2987         0.437256   
     91. A(C   4,O  11,C  12)          119.7557         0.402527   
     92. A(C  13,C  12,C  17)          120.3865         0.435624   
     93. A(O  11,C  12,C  17)          116.6071         0.425339   
     94. A(O  11,C  12,C  13)          122.9075         0.426002   
     95. A(C  12,C  13,H  36)          121.2170         0.356156   
     96. A(C  12,C  13,C  14)          119.6226         0.437825   
     97. A(C  14,C  13,H  36)          119.1566         0.357324   
     98. A(C  13,C  14,C  15)          119.9046         0.438234   
     99. A(C  15,C  14,H  37)          120.1232         0.356590   
    100. A(C  13,C  14,H  37)          119.9720         0.357445   
    101. A(C  16,C  15,C  18)          119.2117         0.403741   
    102. A(C  14,C  15,C  18)          120.2194         0.404245   
    103. A(C  14,C  15,C  16)          120.5337         0.436567   
    104. A(C  15,C  16,C  17)          119.6018         0.438396   
    105. A(C  17,C  16,H  38)          120.3118         0.358011   
    106. A(C  15,C  16,H  38)          120.0821         0.356175   
    107. A(C  12,C  17,C  16)          119.9422         0.437858   
    108. A(C  16,C  17,H  39)          120.3479         0.358027   
    109. A(C  12,C  17,H  39)          119.7091         0.355779   
    110. A(F  20,C  18,F  21)          107.1934         0.427088   
    111. A(F  19,C  18,F  21)          106.5214         0.424493   
    112. A(C  15,C  18,F  21)          112.2040         0.399410   
    113. A(F  19,C  18,F  20)          106.6835         0.425052   
    114. A(C  15,C  18,F  20)          112.6867         0.399927   
    115. A(C  15,C  18,F  19)          111.1767         0.397540   
    116. D(C   2,N   1,C   0,H  24)     59.3295         0.015770   
    117. D(H  25,N   1,C   0,H  24)    -63.8253         0.015770   
    118. D(H  25,N   1,C   0,H  23)     56.4427         0.015770   
    119. D(H  25,N   1,C   0,H  22)    176.4215         0.015770   
    120. D(H  40,N   1,C   0,H  24)    177.9741         0.015770   
    121. D(H  40,N   1,C   0,H  22)     58.2209         0.015770   
    122. D(H  40,N   1,C   0,H  23)    -61.7579         0.015770   
    123. D(C   2,N   1,C   0,H  22)    -60.4238         0.015770   
    124. D(C   2,N   1,C   0,H  23)    179.5974         0.015770   
    125. D(H  26,C   2,N   1,H  40)    -79.5575         0.014027   
    126. D(H  26,C   2,N   1,H  25)    166.3667         0.014027   
    127. D(H  26,C   2,N   1,C   0)     43.0015         0.014027   
    128. D(H  27,C   2,N   1,H  25)     47.8512         0.014027   
    129. D(C   3,C   2,N   1,C   0)    161.9900         0.014027   
    130. D(C   3,C   2,N   1,H  40)     39.4310         0.014027   
    131. D(H  27,C   2,N   1,H  40)    161.9270         0.014027   
    132. D(C   3,C   2,N   1,H  25)    -74.6448         0.014027   
    133. D(H  27,C   2,N   1,C   0)    -75.5141         0.014027   
    134. D(H  29,C   3,C   2,H  26)    176.0018         0.011617   
    135. D(H  29,C   3,C   2,N   1)     57.7343         0.011617   
    136. D(H  28,C   3,C   2,H  27)     54.5331         0.011617   
    137. D(H  28,C   3,C   2,H  26)    -65.6327         0.011617   
    138. D(C   4,C   3,C   2,H  27)    174.1384         0.011617   
    139. D(H  28,C   3,C   2,N   1)    176.0998         0.011617   
    140. D(C   4,C   3,C   2,H  26)     53.9726         0.011617   
    141. D(H  29,C   3,C   2,H  27)    -63.8324         0.011617   
    142. D(C   4,C   3,C   2,N   1)    -64.2949         0.011617   
    143. D(O  11,C   4,C   3,C   2)     63.8138         0.010156   
    144. D(C   5,C   4,C   3,H  29)    179.3313         0.010156   
    145. D(C   5,C   4,C   3,H  28)     61.6624         0.010156   
    146. D(C   5,C   4,C   3,C   2)    -58.1268         0.010156   
    147. D(H  30,C   4,C   3,H  29)     60.3993         0.010156   
    148. D(H  30,C   4,C   3,H  28)    -57.2696         0.010156   
    149. D(H  30,C   4,C   3,C   2)   -177.0589         0.010156   
    150. D(O  11,C   4,C   3,H  29)    -58.7281         0.010156   
    151. D(O  11,C   4,C   3,H  28)   -176.3969         0.010156   
    152. D(C  10,C   5,C   4,H  30)   -137.5288         0.011402   
    153. D(C  10,C   5,C   4,O  11)    -17.0181         0.011402   
    154. D(C  10,C   5,C   4,C   3)    103.3924         0.011402   
    155. D(C   6,C   5,C   4,H  30)     43.2264         0.011402   
    156. D(C   6,C   5,C   4,O  11)    163.7371         0.011402   
    157. D(C   6,C   5,C   4,C   3)    -75.8525         0.011402   
    158. D(H  31,C   6,C   5,C  10)    178.9871         0.027056   
    159. D(H  31,C   6,C   5,C   4)     -1.7488         0.027056   
    160. D(C   7,C   6,C   5,C  10)     -0.3501         0.027056   
    161. D(C   7,C   6,C   5,C   4)    178.9140         0.027056   
    162. D(H  32,C   7,C   6,H  31)      0.3656         0.028604   
    163. D(H  32,C   7,C   6,C   5)    179.7018         0.028604   
    164. D(C   8,C   7,C   6,H  31)   -179.1087         0.028604   
    165. D(C   8,C   7,C   6,C   5)      0.2274         0.028604   
    166. D(H  33,C   8,C   7,H  32)      0.1105         0.027991   
    167. D(H  33,C   8,C   7,C   6)    179.5826         0.027991   
    168. D(C   9,C   8,C   7,H  32)   -179.2557         0.027991   
    169. D(C   9,C   8,C   7,C   6)      0.2164         0.027991   
    170. D(H  34,C   9,C   8,H  33)     -0.1744         0.028441   
    171. D(H  34,C   9,C   8,C   7)    179.1920         0.028441   
    172. D(C  10,C   9,C   8,H  33)   -179.9015         0.028441   
    173. D(C  10,C   9,C   8,C   7)     -0.5351         0.028441   
    174. D(C   5,C  10,C   9,C   8)      0.4118         0.028144   
    175. D(H  35,C  10,C   5,C   6)   -177.9447         0.027409   
    176. D(H  35,C  10,C   5,C   4)      2.8144         0.027409   
    177. D(C   9,C  10,C   5,C   6)      0.0311         0.027409   
    178. D(C   9,C  10,C   5,C   4)   -179.2098         0.027409   
    179. D(H  35,C  10,C   9,H  34)     -1.3302         0.028144   
    180. D(H  35,C  10,C   9,C   8)    178.3983         0.028144   
    181. D(C   5,C  10,C   9,H  34)   -179.3167         0.028144   
    182. D(C  12,O  11,C   4,H  30)     13.7904         0.017726   
    183. D(C  12,O  11,C   4,C   5)   -105.8597         0.017726   
    184. D(C  12,O  11,C   4,C   3)    132.1574         0.017726   
    185. D(C  17,C  12,O  11,C   4)    140.1953         0.023674   
    186. D(C  13,C  12,O  11,C   4)    -43.4124         0.023674   
    187. D(H  36,C  13,C  12,C  17)    178.3828         0.027420   
    188. D(H  36,C  13,C  12,O  11)      2.1223         0.027420   
    189. D(C  14,C  13,C  12,C  17)     -0.9005         0.027420   
    190. D(C  14,C  13,C  12,O  11)   -177.1610         0.027420   
    191. D(H  37,C  14,C  13,H  36)      0.8504         0.028569   
    192. D(H  37,C  14,C  13,C  12)   -179.8514         0.028569   
    193. D(C  15,C  14,C  13,H  36)   -179.0035         0.028569   
    194. D(C  15,C  14,C  13,C  12)      0.2946         0.028569   
    195. D(C  18,C  15,C  14,H  37)     -1.4806         0.027724   
    196. D(C  18,C  15,C  14,C  13)    178.3730         0.027724   
    197. D(C  16,C  15,C  14,H  37)   -179.3042         0.027724   
    198. D(C  16,C  15,C  14,C  13)      0.5495         0.027724   
    199. D(H  38,C  16,C  15,C  18)      2.1253         0.027310   
    200. D(H  38,C  16,C  15,C  14)    179.9706         0.027310   
    201. D(C  17,C  16,C  15,C  18)   -178.6329         0.027310   
    202. D(C  17,C  16,C  15,C  14)     -0.7875         0.027310   
    203. D(H  39,C  17,C  16,C  15)   -179.4808         0.029131   
    204. D(C  12,C  17,C  16,H  38)    179.4207         0.029131   
    205. D(C  12,C  17,C  16,C  15)      0.1806         0.029131   
    206. D(H  39,C  17,C  12,C  13)   -179.6734         0.026918   
    207. D(H  39,C  17,C  12,O  11)     -3.1845         0.026918   
    208. D(C  16,C  17,C  12,C  13)      0.6630         0.026918   
    209. D(H  39,C  17,C  16,H  38)     -0.2407         0.029131   
    210. D(C  16,C  17,C  12,O  11)    177.1519         0.026918   
    211. D(F  21,C  18,C  15,C  16)    -37.7948         0.012325   
    212. D(F  21,C  18,C  15,C  14)    144.3530         0.012325   
    213. D(F  20,C  18,C  15,C  16)   -158.9046         0.012325   
    214. D(F  20,C  18,C  15,C  14)     23.2431         0.012325   
    215. D(F  19,C  18,C  15,C  16)     81.3832         0.012325   
    216. D(F  19,C  18,C  15,C  14)    -96.4691         0.012325   
    -----------------------------------------------------------------

Number of atoms                         .... 41
Number of degrees of freedom            .... 216

         *************************************************************
         *                GEOMETRY OPTIMIZATION CYCLE   1            *
         *************************************************************
---------------------------------
CARTESIAN COORDINATES (ANGSTROEM)
---------------------------------
  C     -3.610108    2.874897   -1.369830
  N     -2.922344    2.457789   -0.138186
  C     -3.724701    1.562560    0.737240
  C     -2.806991    0.844918    1.719790
  C     -1.821102   -0.094666    0.993394
  C     -2.564272   -1.125916    0.165068
  C     -3.167642   -2.197248    0.813188
  C     -3.871725   -3.142594    0.090178
  C     -3.976046   -3.029847   -1.286851
  C     -3.369641   -1.970435   -1.938067
  C     -2.669636   -1.019060   -1.215051
  O     -0.963336    0.704859    0.166036
  C      0.406026    0.503439    0.199214
  C      1.112863    0.319294    1.379717
  C      2.488417    0.182405    1.338586
  C      3.152489    0.235872    0.122302
  C      2.448497    0.437526   -1.057641
  C      1.074889    0.569311   -1.018149
  C      4.653636    0.124284    0.072689
  F      5.230146    1.339508    0.022524
  F      5.160082   -0.496852    1.142499
  F      5.075919   -0.542347   -1.008713
  H     -3.857799    1.998563   -1.965627
  H     -2.969542    3.530904   -1.955454
  H     -4.529724    3.405096   -1.127673
  H     -2.635800    3.285335    0.394813
  H     -4.219865    0.823805    0.102661
  H     -4.485271    2.144895    1.259872
  H     -3.416590    0.248245    2.396864
  H     -2.248253    1.568636    2.317051
  H     -1.224809   -0.621509    1.744126
  H     -3.076358   -2.296327    1.884753
  H     -4.332277   -3.972881    0.601742
  H     -4.519609   -3.771130   -1.850708
  H     -3.435975   -1.883747   -3.011670
  H     -2.177447   -0.209430   -1.735216
  H      0.610081    0.292009    2.334235
  H      3.042999    0.036674    2.252190
  H      2.972426    0.478342   -1.999547
  H      0.515340    0.717946   -1.928102
  H     -2.047054    1.912880   -0.346456

----------------------------
CARTESIAN COORDINATES (A.U.)
----------------------------
  NO LB      ZA    FRAG     MASS         X           Y           Z
   0 C     6.0000    0    12.011   -6.822115    5.432767   -2.588604
   1 N     7.0000    0    14.007   -5.522429    4.644549   -0.261133
   2 C     6.0000    0    12.011   -7.038664    2.952811    1.393182
   3 C     6.0000    0    12.011   -5.304445    1.596664    3.249933
   4 C     6.0000    0    12.011   -3.441384   -0.178892    1.877243
   5 C     6.0000    0    12.011   -4.845771   -2.127672    0.311934
   6 C     6.0000    0    12.011   -5.985976   -4.152196    1.536702
   7 C     6.0000    0    12.011   -7.316500   -5.938643    0.170412
   8 C     6.0000    0    12.011   -7.513638   -5.725581   -2.431796
   9 C     6.0000    0    12.011   -6.367698   -3.723583   -3.662417
  10 C     6.0000    0    12.011   -5.044882   -1.925745   -2.296114
  11 O     8.0000    0    15.999   -1.820441    1.331991    0.313763
  12 C     6.0000    0    12.011    0.767278    0.951362    0.376461
  13 C     6.0000    0    12.011    2.103006    0.603379    2.607287
  14 C     6.0000    0    12.011    4.702427    0.344696    2.529561
  15 C     6.0000    0    12.011    5.957341    0.445734    0.231118
  16 C     6.0000    0    12.011    4.626989    0.826804   -1.998652
  17 C     6.0000    0    12.011    2.031245    1.075842   -1.924023
  18 C     6.0000    0    12.011    8.794098    0.234862    0.137363
  19 F     9.0000    0    18.998    9.883544    2.531303    0.042563
  20 F     9.0000    0    18.998    9.751141   -0.938913    2.159010
  21 F     9.0000    0    18.998    9.592097   -1.024887   -1.906190
  22 H     1.0000    0     1.008   -7.290184    3.776737   -3.714496
  23 H     1.0000    0     1.008   -5.611622    6.672442   -3.695273
  24 H     1.0000    0     1.008   -8.559938    6.434699   -2.130993
  25 H     1.0000    0     1.008   -4.980939    6.208383    0.746088
  26 H     1.0000    0     1.008   -7.974388    1.556766    0.194001
  27 H     1.0000    0     1.008   -8.475933    4.053265    2.380812
  28 H     1.0000    0     1.008   -6.456420    0.469115    4.529417
  29 H     1.0000    0     1.008   -4.248582    2.964292    4.378591
  30 H     1.0000    0     1.008   -2.314553   -1.174482    3.295920
  31 H     1.0000    0     1.008   -5.813475   -4.339429    3.561668
  32 H     1.0000    0     1.008   -8.186818   -7.507657    1.137127
  33 H     1.0000    0     1.008   -8.540823   -7.126403   -3.497331
  34 H     1.0000    0     1.008   -6.493051   -3.559767   -5.691231
  35 H     1.0000    0     1.008   -4.114779   -0.395765   -3.279082
  36 H     1.0000    0     1.008    1.152887    0.551817    4.411065
  37 H     1.0000    0     1.008    5.750434    0.069304    4.256022
  38 H     1.0000    0     1.008    5.617071    0.903936   -3.778596
  39 H     1.0000    0     1.008    0.973852    1.356722   -3.643586
  40 H     1.0000    0     1.008   -3.868372    3.614819   -0.654706

--------------------------------
INTERNAL COORDINATES (ANGSTROEM)
--------------------------------
 C      0   0   0     0.000000000000     0.00000000     0.00000000
 N      1   0   0     1.471035760969     0.00000000     0.00000000
 C      2   1   0     1.487138761914   114.28692862     0.00000000
 C      3   2   1     1.524009620848   109.76113022   161.98997611
 C      4   3   2     1.543517843577   111.58351915   295.70508365
 C      5   4   3     1.517201743060   110.96646391   301.87315214
 C      6   5   4     1.389916281940   118.81393512   284.14754668
 C      7   6   5     1.382807224322   120.27622162   178.91402311
 C      8   7   6     1.385569736535   120.15491792     0.22744819
 C      9   8   7     1.383533216975   119.80821800     0.21643325
 C     10   9   8     1.384872905525   120.12216043   359.46490876
 O      5   4   3     1.435104190532   108.29737572    63.81380632
 C     12   5   4     1.384493839245   119.75574552   132.15742859
 C     13  12   5     1.388205050354   122.90753614   316.58764105
 C     14  13  12     1.382960682380   119.62261382   182.83895271
 C     15  14  13     1.386793735560   119.90462925     0.29464989
 C     16  15  14     1.388716808355   120.53373728     0.54945189
 C     17  16  15     1.380480829050   119.60175810   359.21247168
 C     16  15  14     1.506106353992   120.21935326   178.37304917
 F     19  16  15     1.345975853337   111.17670831   263.53092538
 F     19  16  15     1.336708260474   112.68670762    23.24312083
 F     19  16  15     1.338711739907   112.20399395   144.35296319
 H      1   2   3     1.088248529796   109.66189590   299.57620797
 H      1   2   3     1.087945632911   110.26604979   179.59742380
 H      1   2   3     1.088781701400   110.28903518    59.32946058
 H      2   1   3     1.025195609235   109.69962366   236.84524718
 H      3   2   1     1.092536806462   108.03892460    43.00147302
 H      3   2   1     1.091203272797   109.67831646   284.48594908
 H      4   3   2     1.089063525781   108.76879753   176.09977051
 H      4   3   2     1.092096574358   110.40281448    57.73427187
 H      5   4   3     1.093950189427   108.56389059   182.94114583
 H      7   6   5     1.080001090953   119.78055049   358.25121843
 H      8   7   6     1.078509147687   119.71758314   179.70175381
 H      9   8   7     1.078376219451   120.11039488   179.58260139
 H     10   9   8     1.079137249104   120.18846543   179.19201505
 H     11  10   9     1.080889381736   119.57050666   178.39829335
 H     14  13  12     1.079184056545   121.21700142     2.12226379
 H     15  14  13     1.078642746789   119.97200470   180.14856323
 H     17  16  15     1.078588931744   120.08208549   179.97061253
 H     18  17  16     1.078518496474   120.34789545   180.51917940
 H      2   1   3     1.051871632045   111.72548319   118.64467322

---------------------------
INTERNAL COORDINATES (A.U.)
---------------------------
 C      0   0   0     0.000000000000     0.00000000     0.00000000
 N      1   0   0     2.779854721435     0.00000000     0.00000000
 C      2   1   0     2.810284983157   114.28692862     0.00000000
 C      3   2   1     2.879960808864   109.76113022   161.98997611
 C      4   3   2     2.916826007181   111.58351915   295.70508365
 C      5   4   3     2.867095784292   110.96646391   301.87315214
 C      6   5   4     2.626561121944   118.81393512   284.14754668
 C      7   6   5     2.613126949977   120.27622162   178.91402311
 C      8   7   6     2.618347341501   120.15491792     0.22744819
 C      9   8   7     2.614498877265   119.80821800     0.21643325
 C     10   9   8     2.617030521730   120.12216043   359.46490876
 O      5   4   3     2.711953893747   108.29737572    63.81380632
 C     12   5   4     2.616314190275   119.75574552   132.15742859
 C     13  12   5     2.623327362896   122.90753614   316.58764105
 C     14  13  12     2.613416943679   119.62261382   182.83895271
 C     15  14  13     2.620660364446   119.90462925     0.29464989
 C     16  15  14     2.624294445364   120.53373728     0.54945189
 C     17  16  15     2.608730700033   119.60175810   359.21247168
 C     16  15  14     2.846128537604   120.21935326   178.37304917
 F     19  16  15     2.543525745679   111.17670831   263.53092538
 F     19  16  15     2.526012533246   112.68670762    23.24312083
 F     19  16  15     2.529798560689   112.20399395   144.35296319
 H      1   2   3     2.056491686957   109.66189590   299.57620797
 H      1   2   3     2.055919294798   110.26604979   179.59742380
 H      1   2   3     2.057499235271   110.28903518    59.32946058
 H      2   1   3     1.937338935152   109.69962366   236.84524718
 H      3   2   1     2.064595355443   108.03892460    43.00147302
 H      3   2   1     2.062075342025   109.67831646   284.48594908
 H      4   3   2     2.058031806169   108.76879753   176.09977051
 H      4   3   2     2.063763437331   110.40281448    57.73427187
 H      5   4   3     2.067266262168   108.56389059   182.94114583
 H      7   6   5     2.040906286238   119.78055049   358.25121843
 H      8   7   6     2.038086922058   119.71758314   179.70175381
 H      9   8   7     2.037835724096   120.11039488   179.58260139
 H     10   9   8     2.039273861721   120.18846543   179.19201505
 H     11  10   9     2.042584912544   119.57050666   178.39829335
 H     14  13  12     2.039362314965   121.21700142     2.12226379
 H     15  14  13     2.038339387772   119.97200470   180.14856323
 H     17  16  15     2.038237692075   120.08208549   179.97061253
 H     18  17  16     2.038104588705   120.34789545   180.51917940
 H      2   1   3     1.987749312606   111.72548319   118.64467322

---------------------
BASIS SET INFORMATION
---------------------
There are 5 groups of distinct atoms

 Group   1 Type C   : 11s6p2d1f contracted to 5s3p2d1f pattern {62111/411/11/1}
 Group   2 Type N   : 11s6p2d1f contracted to 5s3p2d1f pattern {62111/411/11/1}
 Group   3 Type O   : 11s6p2d1f contracted to 5s3p2d1f pattern {62111/411/11/1}
 Group   4 Type F   : 11s6p2d1f contracted to 5s3p2d1f pattern {62111/411/11/1}
 Group   5 Type H   : 5s2p1d contracted to 3s2p1d pattern {311/11/1}

Atom   0C    basis set group =>   1
Atom   1N    basis set group =>   2
Atom   2C    basis set group =>   1
Atom   3C    basis set group =>   1
Atom   4C    basis set group =>   1
Atom   5C    basis set group =>   1
Atom   6C    basis set group =>   1
Atom   7C    basis set group =>   1
Atom   8C    basis set group =>   1
Atom   9C    basis set group =>   1
Atom  10C    basis set group =>   1
Atom  11O    basis set group =>   3
Atom  12C    basis set group =>   1
Atom  13C    basis set group =>   1
Atom  14C    basis set group =>   1
Atom  15C    basis set group =>   1
Atom  16C    basis set group =>   1
Atom  17C    basis set group =>   1
Atom  18C    basis set group =>   1
Atom  19F    basis set group =>   4
Atom  20F    basis set group =>   4
Atom  21F    basis set group =>   4
Atom  22H    basis set group =>   5
Atom  23H    basis set group =>   5
Atom  24H    basis set group =>   5
Atom  25H    basis set group =>   5
Atom  26H    basis set group =>   5
Atom  27H    basis set group =>   5
Atom  28H    basis set group =>   5
Atom  29H    basis set group =>   5
Atom  30H    basis set group =>   5
Atom  31H    basis set group =>   5
Atom  32H    basis set group =>   5
Atom  33H    basis set group =>   5
Atom  34H    basis set group =>   5
Atom  35H    basis set group =>   5
Atom  36H    basis set group =>   5
Atom  37H    basis set group =>   5
Atom  38H    basis set group =>   5
Atom  39H    basis set group =>   5
Atom  40H    basis set group =>   5
---------------------------------
AUXILIARY/J BASIS SET INFORMATION
---------------------------------
There are 5 groups of distinct atoms

 Group   1 Type C   : 12s5p4d2f1g contracted to 6s4p3d1f1g pattern {711111/2111/211/2/1}
 Group   2 Type N   : 12s5p4d2f1g contracted to 6s4p3d1f1g pattern {711111/2111/211/2/1}
 Group   3 Type O   : 12s5p4d2f1g contracted to 6s4p3d1f1g pattern {711111/2111/211/2/1}
 Group   4 Type F   : 12s5p4d2f1g contracted to 6s4p3d1f1g pattern {711111/2111/211/2/1}
 Group   5 Type H   : 5s2p1d contracted to 3s1p1d pattern {311/2/1}

Atom   0C    basis set group =>   1
Atom   1N    basis set group =>   2
Atom   2C    basis set group =>   1
Atom   3C    basis set group =>   1
Atom   4C    basis set group =>   1
Atom   5C    basis set group =>   1
Atom   6C    basis set group =>   1
Atom   7C    basis set group =>   1
Atom   8C    basis set group =>   1
Atom   9C    basis set group =>   1
Atom  10C    basis set group =>   1
Atom  11O    basis set group =>   3
Atom  12C    basis set group =>   1
Atom  13C    basis set group =>   1
Atom  14C    basis set group =>   1
Atom  15C    basis set group =>   1
Atom  16C    basis set group =>   1
Atom  17C    basis set group =>   1
Atom  18C    basis set group =>   1
Atom  19F    basis set group =>   4
Atom  20F    basis set group =>   4
Atom  21F    basis set group =>   4
Atom  22H    basis set group =>   5
Atom  23H    basis set group =>   5
Atom  24H    basis set group =>   5
Atom  25H    basis set group =>   5
Atom  26H    basis set group =>   5
Atom  27H    basis set group =>   5
Atom  28H    basis set group =>   5
Atom  29H    basis set group =>   5
Atom  30H    basis set group =>   5
Atom  31H    basis set group =>   5
Atom  32H    basis set group =>   5
Atom  33H    basis set group =>   5
Atom  34H    basis set group =>   5
Atom  35H    basis set group =>   5
Atom  36H    basis set group =>   5
Atom  37H    basis set group =>   5
Atom  38H    basis set group =>   5
Atom  39H    basis set group =>   5
Atom  40H    basis set group =>   5


           ************************************************************
           *        Program running with 8 parallel MPI-processes     *
           *              working on a common directory               *
           ************************************************************
------------------------------------------------------------------------------
                           ORCA GTO INTEGRAL CALCULATION
                           -- RI-GTO INTEGRALS CHOSEN --
------------------------------------------------------------------------------
------------------------------------------------------------------------------
                   ___                                                        
                  /   \      - P O W E R E D   B Y -                         
                 /     \                                                     
                 |  |  |   _    _      __       _____    __    __             
                 |  |  |  | |  | |    /  \     |  _  \  |  |  /  |          
                  \  \/   | |  | |   /    \    | | | |  |  | /  /          
                 / \  \   | |__| |  /  /\  \   | |_| |  |  |/  /          
                |  |  |   |  __  | /  /__\  \  |    /   |      \           
                |  |  |   | |  | | |   __   |  |    \   |  |\   \          
                \     /   | |  | | |  |  |  |  | |\  \  |  | \   \       
                 \___/    |_|  |_| |__|  |__|  |_| \__\ |__|  \__/        
                                                                              
                      - O R C A' S   B I G   F R I E N D -                    
                                      &                                       
                       - I N T E G R A L  F E E D E R -                       
                                                                              
 v1 FN, 2020, v2 2021                                                         
------------------------------------------------------------------------------


Reading SHARK input file Fluoxetine_16.SHARKINP.tmp ... ok
----------------------
SHARK INTEGRAL PACKAGE
----------------------

Number of atoms                             ...     41
Number of basis functions                   ...    948
Number of shells                            ...    356
Maximum angular momentum                    ...      3
Integral batch strategy                     ... SHARK/LIBINT Hybrid
RI-J (if used) integral strategy            ... SPLIT-RIJ (Revised 2003 algorithm where possible)
Printlevel                                  ...      1
Contraction scheme used                     ... SEGMENTED contraction
Coulomb Range Separation                    ... NOT USED
Exchange Range Separation                   ... Long Range
   Mu parameter                             ...  0.250000
   Scaling (regular/separated)              ...  0.195728  0.804272
Finite Nucleus Model                        ... NOT USED
Auxiliary Coulomb fitting basis             ... AVAILABLE
   # of basis functions in Aux-J            ...   1287
   # of shells in Aux-J                     ...    425
   Maximum angular momentum in Aux-J        ...      4
Auxiliary J/K fitting basis                 ... NOT available
Auxiliary Correlation fitting basis         ... NOT available
Auxiliary 'external' fitting basis          ... NOT available
Integral threshold                          ...     2.500000e-11
Primitive cut-off                           ...     2.500000e-12
Primitive pair pre-selection threshold      ...     2.500000e-12

Calculating pre-screening integrals         ... done (  0.1 sec) Dimension = 356
Organizing shell pair data                  ... done (  0.3 sec)
Shell pair information
Total number of shell pairs                 ...     63546
Shell pairs after pre-screening             ...     42081
Total number of primitive shell pairs       ...    176069
Primitive shell pairs kept                  ...     79725
          la=0 lb=0:   9375 shell pairs
          la=1 lb=0:  12127 shell pairs
          la=1 lb=1:   3994 shell pairs
          la=2 lb=0:   6516 shell pairs
          la=2 lb=1:   4288 shell pairs
          la=2 lb=2:   1148 shell pairs
          la=3 lb=0:   2236 shell pairs
          la=3 lb=1:   1479 shell pairs
          la=3 lb=2:    772 shell pairs
          la=3 lb=3:    146 shell pairs

Calculating one electron integrals          ... done (  0.1 sec)
Calculating RI/J V-Matrix + Cholesky decomp.... done (  0.1 sec)
Calculating Nuclear repulsion               ... done (  0.0 sec) ENN=   1815.587055408269 Eh

SHARK setup successfully completed in   0.9 seconds

Maximum memory used throughout the entire GTOINT-calculation: 64.7 MB
[1695247009.554945] [nc10329:1201191:0]          mpool.c:42   UCX  WARN  object 0xaa90140 was not returned to mpool ucp_requests
[1695247009.554969] [nc10329:1201191:0]          mpool.c:42   UCX  WARN  object 0xaa90300 was not returned to mpool ucp_requests
[1695247009.554975] [nc10329:1201191:0]          mpool.c:42   UCX  WARN  object 0xaa904c0 was not returned to mpool ucp_requests
[1695247009.554979] [nc10329:1201191:0]          mpool.c:42   UCX  WARN  object 0xaa90680 was not returned to mpool ucp_requests
[1695247009.554984] [nc10329:1201191:0]          mpool.c:42   UCX  WARN  object 0xaa90840 was not returned to mpool ucp_requests
[1695247009.554988] [nc10329:1201191:0]          mpool.c:42   UCX  WARN  object 0xaa90a00 was not returned to mpool ucp_requests
[1695247009.554992] [nc10329:1201191:0]          mpool.c:42   UCX  WARN  object 0xaa90bc0 was not returned to mpool ucp_requests
[1695247009.554996] [nc10329:1201191:0]          mpool.c:42   UCX  WARN  object 0xaa90d80 was not returned to mpool ucp_requests
[1695247009.555000] [nc10329:1201191:0]          mpool.c:42   UCX  WARN  object 0xaa90f40 was not returned to mpool ucp_requests
[1695247009.555004] [nc10329:1201191:0]          mpool.c:42   UCX  WARN  object 0xaa91100 was not returned to mpool ucp_requests
[1695247009.564069] [nc10329:1201193:0]          mpool.c:42   UCX  WARN  object 0xbbb4040 was not returned to mpool ucp_requests
[1695247009.564090] [nc10329:1201193:0]          mpool.c:42   UCX  WARN  object 0xbbb4200 was not returned to mpool ucp_requests
[1695247009.564095] [nc10329:1201193:0]          mpool.c:42   UCX  WARN  object 0xbbb43c0 was not returned to mpool ucp_requests
[1695247009.564099] [nc10329:1201193:0]          mpool.c:42   UCX  WARN  object 0xbbb4580 was not returned to mpool ucp_requests
[1695247009.564105] [nc10329:1201193:0]          mpool.c:42   UCX  WARN  object 0xbbb4740 was not returned to mpool ucp_requests
[1695247009.564109] [nc10329:1201193:0]          mpool.c:42   UCX  WARN  object 0xbbb4900 was not returned to mpool ucp_requests
[1695247009.564113] [nc10329:1201193:0]          mpool.c:42   UCX  WARN  object 0xbbb4ac0 was not returned to mpool ucp_requests
[1695247009.564117] [nc10329:1201193:0]          mpool.c:42   UCX  WARN  object 0xbbb4c80 was not returned to mpool ucp_requests
[1695247009.564120] [nc10329:1201193:0]          mpool.c:42   UCX  WARN  object 0xbbb4e40 was not returned to mpool ucp_requests
[1695247009.564123] [nc10329:1201193:0]          mpool.c:42   UCX  WARN  object 0xbbb5000 was not returned to mpool ucp_requests
[1695247009.566957] [nc10329:1201189:0]          mpool.c:42   UCX  WARN  object 0xaf0ba40 was not returned to mpool ucp_requests
[1695247009.566973] [nc10329:1201189:0]          mpool.c:42   UCX  WARN  object 0xaf0bc00 was not returned to mpool ucp_requests
[1695247009.566976] [nc10329:1201189:0]          mpool.c:42   UCX  WARN  object 0xaf0bdc0 was not returned to mpool ucp_requests
[1695247009.566979] [nc10329:1201189:0]          mpool.c:42   UCX  WARN  object 0xaf0bf80 was not returned to mpool ucp_requests
[1695247009.566981] [nc10329:1201189:0]          mpool.c:42   UCX  WARN  object 0xaf0c140 was not returned to mpool ucp_requests
[1695247009.566984] [nc10329:1201189:0]          mpool.c:42   UCX  WARN  object 0xaf0c300 was not returned to mpool ucp_requests
[1695247009.566986] [nc10329:1201189:0]          mpool.c:42   UCX  WARN  object 0xaf0c4c0 was not returned to mpool ucp_requests
[1695247009.566989] [nc10329:1201189:0]          mpool.c:42   UCX  WARN  object 0xaf0c680 was not returned to mpool ucp_requests
[1695247009.566991] [nc10329:1201189:0]          mpool.c:42   UCX  WARN  object 0xaf0c840 was not returned to mpool ucp_requests
[1695247009.566993] [nc10329:1201189:0]          mpool.c:42   UCX  WARN  object 0xaf0ca00 was not returned to mpool ucp_requests
[1695247009.568186] [nc10329:1201187:0]          mpool.c:42   UCX  WARN  object 0xbf86200 was not returned to mpool ucp_requests
[1695247009.568211] [nc10329:1201187:0]          mpool.c:42   UCX  WARN  object 0xbf863c0 was not returned to mpool ucp_requests
[1695247009.568217] [nc10329:1201187:0]          mpool.c:42   UCX  WARN  object 0xbf86580 was not returned to mpool ucp_requests
[1695247009.568221] [nc10329:1201187:0]          mpool.c:42   UCX  WARN  object 0xbf86900 was not returned to mpool ucp_requests
[1695247009.568225] [nc10329:1201187:0]          mpool.c:42   UCX  WARN  object 0xbf86ac0 was not returned to mpool ucp_requests
[1695247009.568229] [nc10329:1201187:0]          mpool.c:42   UCX  WARN  object 0xbf86c80 was not returned to mpool ucp_requests
[1695247009.568299] [nc10329:1201194:0]          mpool.c:42   UCX  WARN  object 0xb24e9c0 was not returned to mpool ucp_requests
[1695247009.568319] [nc10329:1201194:0]          mpool.c:42   UCX  WARN  object 0xb24eb80 was not returned to mpool ucp_requests
[1695247009.568324] [nc10329:1201194:0]          mpool.c:42   UCX  WARN  object 0xb24ed40 was not returned to mpool ucp_requests
[1695247009.568327] [nc10329:1201194:0]          mpool.c:42   UCX  WARN  object 0xb24ef00 was not returned to mpool ucp_requests
[1695247009.568330] [nc10329:1201194:0]          mpool.c:42   UCX  WARN  object 0xb24f0c0 was not returned to mpool ucp_requests
[1695247009.568333] [nc10329:1201194:0]          mpool.c:42   UCX  WARN  object 0xb24f280 was not returned to mpool ucp_requests
[1695247009.568336] [nc10329:1201194:0]          mpool.c:42   UCX  WARN  object 0xb24f440 was not returned to mpool ucp_requests
[1695247009.568338] [nc10329:1201194:0]          mpool.c:42   UCX  WARN  object 0xb24f600 was not returned to mpool ucp_requests
[1695247009.568341] [nc10329:1201194:0]          mpool.c:42   UCX  WARN  object 0xb24f7c0 was not returned to mpool ucp_requests
[1695247009.568344] [nc10329:1201194:0]          mpool.c:42   UCX  WARN  object 0xb24f980 was not returned to mpool ucp_requests
[1695247009.568415] [nc10329:1201190:0]          mpool.c:42   UCX  WARN  object 0xa7b6bc0 was not returned to mpool ucp_requests
[1695247009.568434] [nc10329:1201190:0]          mpool.c:42   UCX  WARN  object 0xa7b6d80 was not returned to mpool ucp_requests
[1695247009.568439] [nc10329:1201190:0]          mpool.c:42   UCX  WARN  object 0xa7b6f40 was not returned to mpool ucp_requests
[1695247009.568442] [nc10329:1201190:0]          mpool.c:42   UCX  WARN  object 0xa7b7100 was not returned to mpool ucp_requests
[1695247009.568445] [nc10329:1201190:0]          mpool.c:42   UCX  WARN  object 0xa7b72c0 was not returned to mpool ucp_requests
[1695247009.568449] [nc10329:1201190:0]          mpool.c:42   UCX  WARN  object 0xa7b7480 was not returned to mpool ucp_requests
[1695247009.568452] [nc10329:1201190:0]          mpool.c:42   UCX  WARN  object 0xa7b7640 was not returned to mpool ucp_requests
[1695247009.568454] [nc10329:1201190:0]          mpool.c:42   UCX  WARN  object 0xa7b7800 was not returned to mpool ucp_requests
[1695247009.568457] [nc10329:1201190:0]          mpool.c:42   UCX  WARN  object 0xa7b79c0 was not returned to mpool ucp_requests
[1695247009.568460] [nc10329:1201190:0]          mpool.c:42   UCX  WARN  object 0xa7b7b80 was not returned to mpool ucp_requests
[1695247009.569115] [nc10329:1201192:0]          mpool.c:42   UCX  WARN  object 0xb3e0540 was not returned to mpool ucp_requests
[1695247009.569138] [nc10329:1201192:0]          mpool.c:42   UCX  WARN  object 0xb3e0700 was not returned to mpool ucp_requests
[1695247009.569142] [nc10329:1201192:0]          mpool.c:42   UCX  WARN  object 0xb3e08c0 was not returned to mpool ucp_requests
[1695247009.569144] [nc10329:1201192:0]          mpool.c:42   UCX  WARN  object 0xb3e0a80 was not returned to mpool ucp_requests
[1695247009.569150] [nc10329:1201192:0]          mpool.c:42   UCX  WARN  object 0xb3e0c40 was not returned to mpool ucp_requests
[1695247009.569152] [nc10329:1201192:0]          mpool.c:42   UCX  WARN  object 0xb3e0e00 was not returned to mpool ucp_requests
[1695247009.569154] [nc10329:1201192:0]          mpool.c:42   UCX  WARN  object 0xb3e0fc0 was not returned to mpool ucp_requests
[1695247009.569157] [nc10329:1201192:0]          mpool.c:42   UCX  WARN  object 0xb3e1180 was not returned to mpool ucp_requests
[1695247009.569159] [nc10329:1201192:0]          mpool.c:42   UCX  WARN  object 0xb3e1340 was not returned to mpool ucp_requests
[1695247009.569161] [nc10329:1201192:0]          mpool.c:42   UCX  WARN  object 0xb3e1500 was not returned to mpool ucp_requests


           ************************************************************
           *        Program running with 8 parallel MPI-processes     *
           *              working on a common directory               *
           ************************************************************
-------------------------------------------------------------------------------
                                 ORCA SCF
-------------------------------------------------------------------------------

------------
SCF SETTINGS
------------
Hamiltonian:
 Density Functional     Method          .... DFT(GTOs)
 Exchange Functional    Exchange        .... WB97X-D3
 Correlation Functional Correlation     .... WB97X-D3
 Gradients option       PostSCFGGA      .... off
 Hybrid DFT is turned on
   Fraction HF Exchange ScalHFX         ....  0.195728
   Scaling of DF-GGA-X  ScalDFX         ....  0.000000
   Scaling of DF-GGA-C  ScalDFC         ....  1.000000
   Scaling of DF-LDA-C  ScalLDAC        ....  1.000000
   Perturbative correction              ....  0.000000
   Density functional embedding theory  .... OFF
 Long-range corrected/Screened/Range-Separated Hybrid DFT is turned on
   Amount of maximum screened exact exchange              ....  0.804272
   Range separation parameter mu (erf(mu*r12)/r12)        ....  0.250000
 RI-approximation to the Coulomb term is turned on
   Number of AuxJ basis functions       .... 1287
   RIJ-COSX (HFX calculated with COS-X)).... on


General Settings:
 Integral files         IntName         .... Fluoxetine_16
 Hartree-Fock type      HFTyp           .... RHF
 Total Charge           Charge          ....    1
 Multiplicity           Mult            ....    1
 Number of Electrons    NEL             ....  162
 Basis Dimension        Dim             ....  948
 Nuclear Repulsion      ENuc            ....   1815.5870554083 Eh

Convergence Acceleration:
 DIIS                   CNVDIIS         .... on
   Start iteration      DIISMaxIt       ....    12
   Startup error        DIISStart       ....  0.200000
   # of expansion vecs  DIISMaxEq       ....     5
   Bias factor          DIISBfac        ....   1.050
   Max. coefficient     DIISMaxC        ....  10.000
 Trust-Rad. Augm. Hess. CNVTRAH         .... auto
   Auto Start mean grad. ratio tolernc. ....  1.125000
   Auto Start start iteration           ....    20
   Auto Start num. interpolation iter.  ....    10
   Max. Number of Micro iterations      ....    16
   Max. Number of Macro iterations      .... Maxiter - #DIIS iter
   Number of Davidson start vectors     ....     2
   Converg. threshold I  (grad. norm)   ....   1.000e-05
   Converg. threshold II (energy diff.) ....   1.000e-08
   Grad. Scal. Fac. for Micro threshold ....   0.100
   Minimum threshold for Micro iter.    ....   0.010
   NR start threshold (gradient norm)   ....   0.001
   Initial trust radius                 ....   0.400
   Minimum AH scaling param. (alpha)    ....   1.000
   Maximum AH scaling param. (alpha)    .... 1000.000
   Orbital update algorithm             .... Taylor
   White noise on init. David. guess    .... on
   Maximum white noise                  ....   0.010
   Quad. conv. algorithm                .... NR
 SOSCF                  CNVSOSCF        .... on
   Start iteration      SOSCFMaxIt      ....   150
   Startup grad/error   SOSCFStart      ....  0.003300
 Level Shifting         CNVShift        .... on
   Level shift para.    LevelShift      ....    0.2500
   Turn off err/grad.   ShiftErr        ....    0.0010
 Zerner damping         CNVZerner       .... off
 Static damping         CNVDamp         .... on
   Fraction old density DampFac         ....    0.7000
   Max. Damping (<1)    DampMax         ....    0.9800
   Min. Damping (>=0)   DampMin         ....    0.0000
   Turn off err/grad.   DampErr         ....    0.1000
 Fernandez-Rico         CNVRico         .... off

SCF Procedure:
 Maximum # iterations   MaxIter         ....   125
 SCF integral mode      SCFMode         .... Direct
   Integral package                     .... SHARK and LIBINT hybrid scheme
 Reset frequency        DirectResetFreq ....    20
 Integral Threshold     Thresh          ....  2.500e-11 Eh
 Primitive CutOff       TCut            ....  2.500e-12 Eh

Convergence Tolerance:
 Convergence Check Mode ConvCheckMode   .... Total+1el-Energy
 Convergence forced     ConvForced      .... 0
 Energy Change          TolE            ....  1.000e-08 Eh
 1-El. energy change                    ....  1.000e-05 Eh
 Orbital Gradient       TolG            ....  1.000e-05
 Orbital Rotation angle TolX            ....  1.000e-05
 DIIS Error             TolErr          ....  5.000e-07


Diagonalization of the overlap matrix:
Smallest eigenvalue                        ... 6.260e-06
Time for diagonalization                   ...    0.165 sec
Threshold for overlap eigenvalues          ... 1.000e-08
Number of eigenvalues below threshold      ... 0
Time for construction of square roots      ...    0.099 sec
Total time needed                          ...    0.343 sec

Time for model grid setup =    0.297 sec

------------------------------
INITIAL GUESS: MODEL POTENTIAL
------------------------------
Loading Hartree-Fock densities                     ... done
Calculating cut-offs                               ... done
Initializing the effective Hamiltonian             ... done
Setting up the integral package (SHARK)            ... done
Starting the Coulomb interaction                   ... done (   0.6 sec)
Reading the grid                                   ... done
Mapping shells                                     ... done
Starting the XC term evaluation                    ... done (   0.3 sec)
  promolecular density results
     # of electrons  =    162.995141177
     EX              =   -137.401481177
     EC              =     -5.519684326
     EX+EC           =   -142.921165503
Transforming the Hamiltonian                       ... done (   0.1 sec)
Diagonalizing the Hamiltonian                      ... done (   0.2 sec)
Back transforming the eigenvectors                 ... done (   0.0 sec)
Now organizing SCF variables                       ... done
                      ------------------
                      INITIAL GUESS DONE (   1.5 sec)
                      ------------------
-------------------
DFT GRID GENERATION
-------------------

General Integration Accuracy     IntAcc      ... 4.959
Radial Grid Type                 RadialGrid  ... OptM3 with GC (2021)
Angular Grid (max. ang.)         AngularGrid ... 6 (Lebedev-590)
Angular grid pruning method      GridPruning ... 4 (adaptive)
Weight generation scheme         WeightScheme... Becke
Basis function cutoff            BFCut       ... 1.0000e-11
Integration weight cutoff        WCut        ... 1.0000e-14
Angular grids for H and He will be reduced by one unit
Partially contracted basis set               ... off
Rotationally invariant grid construction     ... off

Total number of grid points                  ...   472909
Total number of batches                      ...     7408
Average number of points per batch           ...       63
Average number of grid points per atom       ...    11534
Time for grid setup =    5.541 sec

--------------------
COSX GRID GENERATION
--------------------

GRIDX 1
-------
General Integration Accuracy     IntAcc      ... 4.020
Radial Grid Type                 RadialGrid  ... OptM3 with GC (2021)
Angular Grid (max. ang.)         AngularGrid ... 2 (Lebedev-110)
Angular grid pruning method      GridPruning ... 4 (adaptive)
Weight generation scheme         WeightScheme... Becke
Basis function cutoff            BFCut       ... 1.0000e-11
Integration weight cutoff        WCut        ... 1.0000e-14
Angular grids for H and He will be reduced by one unit
Partially contracted basis set               ... on
Rotationally invariant grid construction     ... off

Total number of grid points                  ...    52552
Total number of batches                      ...      843
Average number of points per batch           ...       62
Average number of grid points per atom       ...     1282
UseSFitting                                  ... on

GRIDX 2
-------
General Integration Accuracy     IntAcc      ... 4.338
Radial Grid Type                 RadialGrid  ... OptM3 with GC (2021)
Angular Grid (max. ang.)         AngularGrid ... 3 (Lebedev-194)
Angular grid pruning method      GridPruning ... 4 (adaptive)
Weight generation scheme         WeightScheme... Becke
Basis function cutoff            BFCut       ... 1.0000e-11
Integration weight cutoff        WCut        ... 1.0000e-14
Angular grids for H and He will be reduced by one unit
Partially contracted basis set               ... on
Rotationally invariant grid construction     ... off

Total number of grid points                  ...   114780
Total number of batches                      ...     1813
Average number of points per batch           ...       63
Average number of grid points per atom       ...     2800
UseSFitting                                  ... on

GRIDX 3
-------
General Integration Accuracy     IntAcc      ... 4.871
Radial Grid Type                 RadialGrid  ... OptM3 with GC (2021)
Angular Grid (max. ang.)         AngularGrid ... 4 (Lebedev-302)
Angular grid pruning method      GridPruning ... 4 (adaptive)
Weight generation scheme         WeightScheme... Becke
Basis function cutoff            BFCut       ... 1.0000e-11
Integration weight cutoff        WCut        ... 1.0000e-14
Angular grids for H and He will be reduced by one unit
Partially contracted basis set               ... on
Rotationally invariant grid construction     ... off

Total number of grid points                  ...   215828
Total number of batches                      ...     3396
Average number of points per batch           ...       63
Average number of grid points per atom       ...     5264
UseSFitting                                  ... on

Time for X-Grid setup             =    3.506 sec

--------------
SCF ITERATIONS
--------------
ITER       Energy         Delta-E        Max-DP      RMS-DP      [F,P]     Damp
               ***  Starting incremental Fock matrix formation  ***
  0  -1088.2390465902   0.000000000000 0.02855137  0.00039149  0.1607693 0.7000
  1  -1088.4067612915  -0.167714701280 0.02561773  0.00032683  0.0880194 0.7000
                               ***Turning on DIIS***
  2  -1088.4936405904  -0.086879298905 0.06363090  0.00075408  0.0449023 0.0000
  3  -1088.6393545086  -0.145713918263 0.02046314  0.00019330  0.0418474 0.0000
  4  -1088.6585720444  -0.019217535734 0.00764961  0.00007660  0.0051882 0.0000
  5  -1088.6590252196  -0.000453175219 0.00266176  0.00002850  0.0042335 0.0000
                      *** Initiating the SOSCF procedure ***
                           *** Shutting down DIIS ***
                      *** Re-Reading the Fockian *** 
                      *** Removing any level shift *** 
ITER      Energy       Delta-E        Grad      Rot      Max-DP    RMS-DP
  6  -1088.65911117  -0.0000859520  0.000427  0.000427  0.001151  0.000015
               *** Restarting incremental Fock matrix formation ***
  7  -1088.65913004  -0.0000188685  0.000360  0.000929  0.000704  0.000011
  8  -1088.65913337  -0.0000033267  0.000075  0.000399  0.000603  0.000008
  9  -1088.65913430  -0.0000009304  0.000030  0.000049  0.000206  0.000004
 10  -1088.65913447  -0.0000001717  0.000010  0.000021  0.000196  0.000002
 11  -1088.65913450  -0.0000000280  0.000007  0.000022  0.000165  0.000002
 12  -1088.65913448   0.0000000131  0.000003  0.000011  0.000273  0.000003
                  ***Gradient check signals convergence***
              ***Rediagonalizing the Fockian in SOSCF/NRSCF***

               *****************************************************
               *                     SUCCESS                       *
               *           SCF CONVERGED AFTER  13 CYCLES          *
               *****************************************************

Old exchange energy                            =    -44.810140860 Eh
New exchange energy                            =    -44.810135813 Eh
Exchange energy change after final integration =      0.000005047 Eh
Total energy after final integration           =  -1088.659129424 Eh
Final COS-X integration done in                =    95.666 sec

----------------
TOTAL SCF ENERGY
----------------

Total Energy       :        -1088.65912942 Eh          -29623.92096 eV

Components:
Nuclear Repulsion  :         1815.58705541 Eh           49404.63546 eV
Electronic Energy  :        -2904.24618483 Eh          -79028.55642 eV
One Electron Energy:        -5075.30502211 Eh         -138106.07083 eV
Two Electron Energy:         2171.05883728 Eh           59077.51441 eV
Max COSX asymmetry :            0.00000046 Eh               0.00001 eV

Virial components:
Potential Energy   :        -2172.85368502 Eh          -59126.35470 eV
Kinetic Energy     :         1084.19455559 Eh           29502.43373 eV
Virial Ratio       :            2.00411787


DFT components:
N(Alpha)           :       81.000008286738 electrons
N(Beta)            :       81.000008286738 electrons
N(Total)           :      162.000016573476 electrons
E(XC)              :     -101.241773966580 Eh       
DFET-embed. en.    :        0.000000000000 Eh       

---------------
SCF CONVERGENCE
---------------

  Last Energy change         ...    1.2296e-08  Tolerance :   1.0000e-08
  Last MAX-Density change    ...    1.8874e-15  Tolerance :   1.0000e-07
  Last RMS-Density change    ...    1.1937e-17  Tolerance :   5.0000e-09
  Last Orbital Gradient      ...    1.3637e-06  Tolerance :   1.0000e-05
  Last Orbital Rotation      ...    3.6351e-06  Tolerance :   1.0000e-05

             **** THE GBW FILE WAS UPDATED (Fluoxetine_16.gbw) ****
             **** DENSITY Fluoxetine_16.scfp WAS UPDATED ****
             **** ENERGY FILE WAS UPDATED (Fluoxetine_16.en.tmp) ****
             **** THE GBW FILE WAS UPDATED (Fluoxetine_16.gbw) ****
             **** DENSITY Fluoxetine_16.scfp WAS UPDATED ****
----------------
ORBITAL ENERGIES
----------------

  NO   OCC          E(Eh)            E(eV) 
   0   2.0000     -24.892171      -677.3504 
   1   2.0000     -24.890415      -677.3026 
   2   2.0000     -24.885527      -677.1696 
   3   2.0000     -19.413780      -528.2758 
   4   2.0000     -14.700603      -400.0237 
   5   2.0000     -10.607927      -288.6564 
   6   2.0000     -10.490981      -285.4741 
   7   2.0000     -10.490340      -285.4567 
   8   2.0000     -10.487067      -285.3676 
   9   2.0000     -10.472396      -284.9684 
  10   2.0000     -10.442410      -284.1524 
  11   2.0000     -10.413819      -283.3744 
  12   2.0000     -10.406005      -283.1618 
  13   2.0000     -10.404647      -283.1248 
  14   2.0000     -10.403773      -283.1010 
  15   2.0000     -10.403088      -283.0824 
  16   2.0000     -10.401438      -283.0375 
  17   2.0000     -10.401190      -283.0308 
  18   2.0000     -10.398314      -282.9525 
  19   2.0000     -10.394695      -282.8540 
  20   2.0000     -10.392959      -282.8068 
  21   2.0000     -10.389616      -282.7158 
  22   2.0000      -1.510070       -41.0911 
  23   2.0000      -1.419317       -38.6216 
  24   2.0000      -1.413285       -38.4574 
  25   2.0000      -1.333796       -36.2944 
  26   2.0000      -1.288342       -35.0576 
  27   2.0000      -1.115876       -30.3645 
  28   2.0000      -1.101709       -29.9790 
  29   2.0000      -1.075474       -29.2651 
  30   2.0000      -1.022713       -27.8294 
  31   2.0000      -1.001368       -27.2486 
  32   2.0000      -0.993395       -27.0317 
  33   2.0000      -0.984134       -26.7796 
  34   2.0000      -0.982661       -26.7396 
  35   2.0000      -0.951635       -25.8953 
  36   2.0000      -0.908573       -24.7235 
  37   2.0000      -0.885445       -24.0942 
  38   2.0000      -0.870344       -23.6833 
  39   2.0000      -0.853922       -23.2364 
  40   2.0000      -0.843316       -22.9478 
  41   2.0000      -0.830821       -22.6078 
  42   2.0000      -0.812897       -22.1201 
  43   2.0000      -0.786887       -21.4123 
  44   2.0000      -0.778637       -21.1878 
  45   2.0000      -0.775427       -21.1004 
  46   2.0000      -0.773487       -21.0476 
  47   2.0000      -0.770351       -20.9623 
  48   2.0000      -0.756446       -20.5839 
  49   2.0000      -0.742400       -20.2017 
  50   2.0000      -0.724402       -19.7120 
  51   2.0000      -0.700559       -19.0632 
  52   2.0000      -0.697910       -18.9911 
  53   2.0000      -0.679863       -18.5000 
  54   2.0000      -0.676272       -18.4023 
  55   2.0000      -0.671453       -18.2712 
  56   2.0000      -0.668566       -18.1926 
  57   2.0000      -0.663888       -18.0653 
  58   2.0000      -0.652569       -17.7573 
  59   2.0000      -0.651779       -17.7358 
  60   2.0000      -0.649026       -17.6609 
  61   2.0000      -0.645662       -17.5694 
  62   2.0000      -0.642901       -17.4942 
  63   2.0000      -0.638290       -17.3688 
  64   2.0000      -0.630255       -17.1501 
  65   2.0000      -0.617116       -16.7926 
  66   2.0000      -0.614376       -16.7180 
  67   2.0000      -0.603966       -16.4348 
  68   2.0000      -0.602748       -16.4016 
  69   2.0000      -0.592756       -16.1297 
  70   2.0000      -0.586491       -15.9592 
  71   2.0000      -0.580318       -15.7912 
  72   2.0000      -0.570403       -15.5214 
  73   2.0000      -0.557556       -15.1719 
  74   2.0000      -0.556993       -15.1565 
  75   2.0000      -0.551751       -15.0139 
  76   2.0000      -0.535244       -14.5647 
  77   2.0000      -0.466299       -12.6886 
  78   2.0000      -0.460887       -12.5414 
  79   2.0000      -0.455130       -12.3847 
  80   2.0000      -0.447855       -12.1868 
  81   0.0000      -0.065317        -1.7774 
  82   0.0000      -0.060343        -1.6420 
  83   0.0000      -0.059322        -1.6142 
  84   0.0000      -0.055906        -1.5213 
  85   0.0000      -0.051974        -1.4143 
  86   0.0000      -0.016160        -0.4397 
  87   0.0000      -0.003620        -0.0985 
  88   0.0000       0.006290         0.1712 
  89   0.0000       0.015339         0.4174 
  90   0.0000       0.025045         0.6815 
  91   0.0000       0.027646         0.7523 
  92   0.0000       0.031280         0.8512 
  93   0.0000       0.036460         0.9921 
  94   0.0000       0.044384         1.2078 
  95   0.0000       0.055275         1.5041 
  96   0.0000       0.058259         1.5853 
  97   0.0000       0.065219         1.7747 
  98   0.0000       0.074299         2.0218 
  99   0.0000       0.079161         2.1541 
 100   0.0000       0.080864         2.2004 
 101   0.0000       0.089848         2.4449 
 102   0.0000       0.091624         2.4932 
 103   0.0000       0.095578         2.6008 
 104   0.0000       0.101404         2.7593 
 105   0.0000       0.107534         2.9262 
 106   0.0000       0.111623         3.0374 
 107   0.0000       0.114082         3.1043 
 108   0.0000       0.123138         3.3507 
 109   0.0000       0.124749         3.3946 
 110   0.0000       0.133544         3.6339 
 111   0.0000       0.137383         3.7384 
 112   0.0000       0.143677         3.9097 
 113   0.0000       0.147670         4.0183 
 114   0.0000       0.154646         4.2081 
 115   0.0000       0.158290         4.3073 
 116   0.0000       0.163848         4.4585 
 117   0.0000       0.166155         4.5213 
 118   0.0000       0.166559         4.5323 
 119   0.0000       0.169997         4.6259 
 120   0.0000       0.178842         4.8665 
 121   0.0000       0.184896         5.0313 
 122   0.0000       0.192616         5.2414 
 123   0.0000       0.197254         5.3675 
 124   0.0000       0.198994         5.4149 
 125   0.0000       0.204271         5.5585 
 126   0.0000       0.206552         5.6206 
 127   0.0000       0.210967         5.7407 
 128   0.0000       0.215827         5.8729 
 129   0.0000       0.217825         5.9273 
 130   0.0000       0.223023         6.0688 
 131   0.0000       0.233604         6.3567 
 132   0.0000       0.235561         6.4099 
 133   0.0000       0.241900         6.5824 
 134   0.0000       0.244252         6.6464 
 135   0.0000       0.248670         6.7667 
 136   0.0000       0.255566         6.9543 
 137   0.0000       0.259161         7.0521 
 138   0.0000       0.263349         7.1661 
 139   0.0000       0.269730         7.3397 
 140   0.0000       0.276386         7.5208 
 141   0.0000       0.280868         7.6428 
 142   0.0000       0.281138         7.6501 
 143   0.0000       0.289179         7.8690 
 144   0.0000       0.292863         7.9692 
 145   0.0000       0.295942         8.0530 
 146   0.0000       0.297316         8.0904 
 147   0.0000       0.303209         8.2507 
 148   0.0000       0.311740         8.4829 
 149   0.0000       0.317153         8.6302 
 150   0.0000       0.319584         8.6963 
 151   0.0000       0.327185         8.9032 
 152   0.0000       0.328864         8.9488 
 153   0.0000       0.333047         9.0627 
 154   0.0000       0.335929         9.1411 
 155   0.0000       0.336215         9.1489 
 156   0.0000       0.342017         9.3067 
 157   0.0000       0.349241         9.5033 
 158   0.0000       0.350800         9.5458 
 159   0.0000       0.354514         9.6468 
 160   0.0000       0.355600         9.6764 
 161   0.0000       0.363634         9.8950 
 162   0.0000       0.368705        10.0330 
 163   0.0000       0.370944        10.0939 
 164   0.0000       0.375795        10.2259 
 165   0.0000       0.383609        10.4385 
 166   0.0000       0.386584        10.5195 
 167   0.0000       0.390268        10.6197 
[...]
 11:     61.24   0.000573    2.90  0.002921  ( 0.041467 -0.034641 -0.001116)
 12:     84.60   0.000455    2.30  0.001678  ( 0.035514 -0.010237  0.017665)
 13:    112.42   0.000650    3.28  0.001804  (-0.006913 -0.024582 -0.033941)
 14:    118.80   0.000416    2.10  0.001094  ( 0.030450  0.003173  0.012501)
 15:    156.67   0.001888    9.54  0.003761  (-0.052819  0.031011  0.003127)
 16:    191.42   0.000707    3.57  0.001152  (-0.030568  0.012300 -0.008172)
 17:    203.96   0.000575    2.91  0.000880  ( 0.004122 -0.028400  0.007491)
 18:    212.12   0.000520    2.63  0.000766  (-0.004892  0.018778 -0.019724)
 19:    242.94   0.003552   17.95  0.004562  ( 0.038280 -0.055283  0.006390)
 20:    266.04   0.000613    3.10  0.000719  ( 0.022244 -0.003137  0.014642)
 21:    283.07   0.001117    5.65  0.001232  (-0.025103  0.018806 -0.015739)
 22:    301.99   0.000160    0.81  0.000165  (-0.002951  0.006122  0.010907)
 23:    329.53   0.000575    2.91  0.000544  ( 0.019753  0.001150  0.012364)
 24:    369.33   0.000509    2.57  0.000430  (-0.000743 -0.015788  0.013417)
 25:    406.96   0.000540    2.73  0.000414  (-0.002434  0.019115 -0.006537)
 26:    412.76   0.001292    6.53  0.000977  ( 0.026048 -0.012530  0.011887)
 27:    414.70   0.000269    1.36  0.000203  ( 0.008931 -0.006532  0.008961)
 28:    418.96   0.000093    0.47  0.000069  ( 0.001985 -0.007715  0.002385)
 29:    432.09   0.000030    0.15  0.000022  ( 0.001940 -0.002116  0.003711)
 30:    501.69   0.001447    7.31  0.000900  ( 0.027696 -0.010282 -0.005214)
 31:    517.64   0.000335    1.69  0.000202  ( 0.008678  0.004785  0.010193)
 32:    525.54   0.000465    2.35  0.000276  (-0.002372  0.003777  0.016001)
 33:    567.61   0.000290    1.46  0.000159  ( 0.001092 -0.012258 -0.002785)
 34:    586.15   0.000011    0.06  0.000006  ( 0.002369 -0.000306 -0.000310)
 35:    607.06   0.002678   13.53  0.001377  ( 0.010399  0.011657  0.033654)
 36:    631.93   0.002785   14.07  0.001375  ( 0.029010 -0.021374 -0.008752)
 37:    636.66   0.000076    0.38  0.000037  (-0.001426  0.005070 -0.003076)
 38:    659.53   0.002765   13.97  0.001308  ( 0.034842 -0.008059 -0.005408)
 39:    684.85   0.002805   14.17  0.001278  ( 0.035390  0.004543  0.002221)
 40:    734.60   0.008114   41.01  0.003447  (-0.053380  0.023384 -0.007118)
 41:    764.74   0.000338    1.71  0.000138  (-0.006327  0.008335  0.005335)
 42:    769.17   0.000290    1.47  0.000118  (-0.007129 -0.000418 -0.008167)
 43:    780.51   0.008811   44.53  0.003523  ( 0.047934 -0.033751  0.009267)
 44:    815.67   0.000769    3.89  0.000294  (-0.003212 -0.012470 -0.011338)
 45:    826.38   0.004292   21.69  0.001621  (-0.027120  0.028001  0.010064)
 46:    843.69   0.000114    0.57  0.000042  (-0.001298 -0.005242 -0.003593)
 47:    849.64   0.000335    1.69  0.000123  (-0.005773 -0.007320 -0.006000)
 48:    867.42   0.003774   19.07  0.001358  ( 0.023000 -0.017009 -0.023225)
 49:    872.65   0.011675   59.00  0.004175  (-0.031606 -0.020650 -0.052438)
 50:    886.96   0.000231    1.17  0.000081  (-0.008229 -0.002422 -0.002802)
 51:    939.51   0.001128    5.70  0.000375  ( 0.019176  0.001610 -0.002119)
 52:    968.26   0.001722    8.70  0.000555  (-0.018116  0.014986 -0.001513)
 53:    973.46   0.004542   22.95  0.001456  (-0.036448  0.011196 -0.001480)
 54:    997.37   0.000615    3.11  0.000193  (-0.000224  0.004824  0.013008)
 55:   1014.85   0.000102    0.52  0.000031  (-0.002798  0.000411 -0.004835)
 56:   1025.72   0.000482    2.44  0.000147  ( 0.004618  0.011079 -0.001638)
 57:   1028.52   0.000318    1.61  0.000097  ( 0.004337  0.008297 -0.002985)
 58:   1031.43   0.000621    3.14  0.000188  (-0.010219 -0.009125 -0.000299)
 59:   1039.99   0.007094   35.85  0.002129  (-0.045612  0.003647  0.005897)
 60:   1051.70   0.002815   14.23  0.000835  ( 0.017842  0.022612 -0.002370)
 61:   1053.43   0.000126    0.64  0.000037  ( 0.004890  0.003657 -0.000382)
 62:   1067.36   0.002050   10.36  0.000599  ( 0.019074  0.011509 -0.010158)
 63:   1076.88   0.011501   58.12  0.003333  ( 0.036727  0.024225 -0.037378)
 64:   1098.58   0.009364   47.32  0.002660  (-0.046688 -0.012669  0.017880)
 65:   1108.37   0.017908   90.50  0.005042  ( 0.068900 -0.017033 -0.002152)
 66:   1127.72   0.000314    1.59  0.000087  ( 0.007819  0.003308  0.003842)
 67:   1147.83   0.008332   42.11  0.002265  (-0.002234  0.041692 -0.022849)
 68:   1156.83   0.000819    4.14  0.000221  ( 0.014835  0.000133 -0.000915)
 69:   1185.80   0.003833   19.37  0.001009  ( 0.015253 -0.005448 -0.027319)
 70:   1186.42   0.049097  248.12  0.012914  ( 0.033184  0.041078  0.100625)
 71:   1191.48   0.000529    2.67  0.000139  (-0.011587 -0.002014 -0.000554)
 72:   1209.34   0.032108  162.26  0.008285  (-0.065577 -0.053030  0.034245)
 73:   1215.11   0.001346    6.80  0.000346  (-0.007691  0.016014 -0.005492)
 74:   1218.09   0.015385   77.75  0.003942  (-0.009927  0.059407 -0.017715)
 75:   1233.23   0.002463   12.45  0.000623  (-0.004569 -0.024538 -0.000515)
 76:   1270.09   0.064260  324.75  0.015789  ( 0.124900 -0.012339 -0.006054)
 77:   1285.59   0.000724    3.66  0.000176  (-0.001932 -0.013100 -0.000655)
 78:   1314.48   0.000612    3.09  0.000145  (-0.003816 -0.008674 -0.007453)
 79:   1327.20   0.001641    8.29  0.000386  ( 0.007858  0.014005  0.011313)
 80:   1339.93   0.003907   19.75  0.000910  ( 0.017597 -0.023507  0.006910)
 81:   1348.09   0.012059   60.94  0.002791  (-0.048419  0.020019  0.006801)
 82:   1355.37   0.029644  149.81  0.006825  (-0.082211 -0.002203  0.007863)
 83:   1361.47   0.033056  167.05  0.007577  ( 0.083616 -0.016431 -0.017756)
 84:   1367.80   0.007085   35.81  0.001616  (-0.039618  0.006410 -0.002406)
 85:   1386.90   0.000914    4.62  0.000206  (-0.002190  0.014112 -0.001291)
 86:   1397.82   0.005045   25.50  0.001126  ( 0.029468  0.010186  0.012421)
 87:   1418.16   0.004613   23.31  0.001015  ( 0.015226  0.017075 -0.022174)
 88:   1428.02   0.003267   16.51  0.000714  (-0.016195  0.021039  0.002988)
 89:   1468.78   0.007973   40.29  0.001694  ( 0.019549 -0.030601  0.019374)
 90:   1474.56   0.001221    6.17  0.000258  (-0.005510  0.012782 -0.008039)
 91:   1481.15   0.002520   12.74  0.000531  (-0.004159  0.010377  0.020149)
 92:   1485.80   0.005169   26.12  0.001086  (-0.019966  0.015568 -0.021089)
 93:   1504.81   0.004420   22.34  0.000917  ( 0.026516 -0.008046 -0.012198)
 94:   1505.57   0.005618   28.39  0.001164  ( 0.007719 -0.030987  0.012028)
 95:   1512.56   0.009016   45.56  0.001860  ( 0.015180 -0.023729  0.032658)
 96:   1513.91   0.001880    9.50  0.000388  ( 0.014994  0.011764  0.004939)
 97:   1552.24   0.001754    8.87  0.000353  ( 0.008213  0.014380  0.008857)
 98:   1574.48   0.012758   64.48  0.002529  ( 0.049664  0.003323 -0.007154)
 99:   1669.92   0.000634    3.21  0.000119  ( 0.006381 -0.004755  0.007431)
100:   1678.40   0.003542   17.90  0.000659  ( 0.002579 -0.025008  0.005152)
101:   1682.25   0.010223   51.66  0.001896  ( 0.042751  0.004680  0.006840)
102:   1688.93   0.000128    0.65  0.000024  (-0.000603  0.004503 -0.001734)
103:   1703.93   0.017769   89.80  0.003254  (-0.056193 -0.002411  0.009530)
104:   3075.84   0.000761    3.85  0.000077  ( 0.000893 -0.007905  0.003736)
105:   3084.87   0.002304   11.65  0.000233  (-0.003117 -0.007663 -0.012832)
106:   3097.28   0.000404    2.04  0.000041  ( 0.004226 -0.003363  0.003393)
107:   3106.87   0.001979   10.00  0.000199  (-0.011816  0.007127 -0.002889)
108:   3142.95   0.000608    3.07  0.000060  (-0.005123 -0.005276 -0.002518)
109:   3165.89   0.000931    4.70  0.000092  (-0.006786  0.006598  0.001464)
110:   3184.84   0.000789    3.99  0.000077  ( 0.000716  0.004369  0.007595)
111:   3194.82   0.001184    5.98  0.000116  ( 0.003740  0.009563 -0.003197)
112:   3197.68   0.000675    3.41  0.000066  ( 0.006848 -0.004299  0.000720)
113:   3200.41   0.000055    0.28  0.000005  (-0.002305  0.000104 -0.000246)
114:   3208.35   0.002216   11.20  0.000216  ( 0.011866 -0.008411  0.001986)
115:   3212.73   0.000162    0.82  0.000016  (-0.001621 -0.003506  0.000898)
116:   3221.24   0.000954    4.82  0.000092  ( 0.002850  0.003408 -0.008527)
117:   3227.40   0.000371    1.87  0.000036  (-0.004513  0.003873 -0.000693)
118:   3232.79   0.000388    1.96  0.000037  (-0.002497 -0.005002 -0.002498)
119:   3233.00   0.000092    0.46  0.000009  ( 0.002123  0.001284 -0.001643)
120:   3246.10   0.000210    1.06  0.000020  (-0.003985  0.001138  0.001730)
121:   3266.30   0.113905  575.63  0.010883  (-0.089260  0.050839 -0.018183)
122:   3518.90   0.014087   71.19  0.001249  ( 0.005897 -0.033443 -0.009802)

* The epsilon (eps) is given for a Dirac delta lineshape.
** The dipole moment derivative (T) already includes vibrational overlap.

The first frequency considered to be a vibration is 6
The total number of vibrations considered is 117


--------------------------
THERMOCHEMISTRY AT 298.15K
--------------------------

Temperature         ... 298.15 K
Pressure            ... 1.00 atm
Total Mass          ... 310.34 AMU

Throughout the following assumptions are being made:
  (1) The electronic state is orbitally nondegenerate
  (2) There are no thermally accessible electronically excited states
  (3) Hindered rotations indicated by low frequency modes are not
      treated as such but are treated as vibrations and this may
      cause some error
  (4) All equations used are the standard statistical mechanics
      equations for an ideal gas
  (5) All vibrations are strictly harmonic

freq.       8.57  E(vib)   ...       0.58 
freq.      20.18  E(vib)   ...       0.56 
freq.      27.19  E(vib)   ...       0.55 
freq.      43.17  E(vib)   ...       0.53 
freq.      45.76  E(vib)   ...       0.53 
freq.      61.24  E(vib)   ...       0.51 
freq.      84.60  E(vib)   ...       0.48 
freq.     112.42  E(vib)   ...       0.45 
freq.     118.80  E(vib)   ...       0.44 
freq.     156.67  E(vib)   ...       0.40 
freq.     191.42  E(vib)   ...       0.36 
freq.     203.96  E(vib)   ...       0.35 
freq.     212.12  E(vib)   ...       0.34 
freq.     242.94  E(vib)   ...       0.31 
freq.     266.04  E(vib)   ...       0.29 
freq.     283.07  E(vib)   ...       0.28 
freq.     301.99  E(vib)   ...       0.26 
freq.     329.53  E(vib)   ...       0.24 
freq.     369.33  E(vib)   ...       0.21 
freq.     406.96  E(vib)   ...       0.19 
freq.     412.76  E(vib)   ...       0.19 
freq.     414.70  E(vib)   ...       0.19 
freq.     418.96  E(vib)   ...       0.18 
freq.     432.09  E(vib)   ...       0.18 
freq.     501.69  E(vib)   ...       0.14 
freq.     517.64  E(vib)   ...       0.13 
freq.     525.54  E(vib)   ...       0.13 
freq.     567.61  E(vib)   ...       0.11 
freq.     586.15  E(vib)   ...       0.11 
freq.     607.06  E(vib)   ...       0.10 
freq.     631.93  E(vib)   ...       0.09 
freq.     636.66  E(vib)   ...       0.09 
freq.     659.53  E(vib)   ...       0.08 
freq.     684.85  E(vib)   ...       0.07 
freq.     734.60  E(vib)   ...       0.06 
freq.     764.74  E(vib)   ...       0.06 
freq.     769.17  E(vib)   ...       0.06 
freq.     780.51  E(vib)   ...       0.05 
freq.     815.67  E(vib)   ...       0.05 
freq.     826.38  E(vib)   ...       0.04 
freq.     843.69  E(vib)   ...       0.04 
freq.     849.64  E(vib)   ...       0.04 
freq.     867.42  E(vib)   ...       0.04 
freq.     872.65  E(vib)   ...       0.04 
freq.     886.96  E(vib)   ...       0.04 
freq.     939.51  E(vib)   ...       0.03 
freq.     968.26  E(vib)   ...       0.03 
freq.     973.46  E(vib)   ...       0.03 
freq.     997.37  E(vib)   ...       0.02 
freq.    1014.85  E(vib)   ...       0.02 
freq.    1025.72  E(vib)   ...       0.02 
freq.    1028.52  E(vib)   ...       0.02 
freq.    1031.43  E(vib)   ...       0.02 
freq.    1039.99  E(vib)   ...       0.02 
freq.    1051.70  E(vib)   ...       0.02 
freq.    1053.43  E(vib)   ...       0.02 
freq.    1067.36  E(vib)   ...       0.02 
freq.    1076.88  E(vib)   ...       0.02 
freq.    1098.58  E(vib)   ...       0.02 
freq.    1108.37  E(vib)   ...       0.02 
freq.    1127.72  E(vib)   ...       0.01 
freq.    1147.83  E(vib)   ...       0.01 
freq.    1156.83  E(vib)   ...       0.01 
freq.    1185.80  E(vib)   ...       0.01 
freq.    1186.42  E(vib)   ...       0.01 
freq.    1191.48  E(vib)   ...       0.01 
freq.    1209.34  E(vib)   ...       0.01 
freq.    1215.11  E(vib)   ...       0.01 
freq.    1218.09  E(vib)   ...       0.01 
freq.    1233.23  E(vib)   ...       0.01 
freq.    1270.09  E(vib)   ...       0.01 
freq.    1285.59  E(vib)   ...       0.01 
freq.    1314.48  E(vib)   ...       0.01 
freq.    1327.20  E(vib)   ...       0.01 
freq.    1339.93  E(vib)   ...       0.01 
freq.    1348.09  E(vib)   ...       0.01 
freq.    1355.37  E(vib)   ...       0.01 
freq.    1361.47  E(vib)   ...       0.01 
freq.    1367.80  E(vib)   ...       0.01 
freq.    1386.90  E(vib)   ...       0.00 
freq.    1397.82  E(vib)   ...       0.00 
freq.    1418.16  E(vib)   ...       0.00 
freq.    1428.02  E(vib)   ...       0.00 
freq.    1468.78  E(vib)   ...       0.00 
freq.    1474.56  E(vib)   ...       0.00 
freq.    1481.15  E(vib)   ...       0.00 
freq.    1485.80  E(vib)   ...       0.00 
freq.    1504.81  E(vib)   ...       0.00 
freq.    1505.57  E(vib)   ...       0.00 
freq.    1512.56  E(vib)   ...       0.00 
freq.    1513.91  E(vib)   ...       0.00 
freq.    1552.24  E(vib)   ...       0.00 
freq.    1574.48  E(vib)   ...       0.00 
freq.    1669.92  E(vib)   ...       0.00 
freq.    1678.40  E(vib)   ...       0.00 
freq.    1682.25  E(vib)   ...       0.00 
freq.    1688.93  E(vib)   ...       0.00 
freq.    1703.93  E(vib)   ...       0.00 
freq.    3075.84  E(vib)   ...       0.00 
freq.    3084.87  E(vib)   ...       0.00 
freq.    3097.28  E(vib)   ...       0.00 
freq.    3106.87  E(vib)   ...       0.00 
freq.    3142.95  E(vib)   ...       0.00 
freq.    3165.89  E(vib)   ...       0.00 
freq.    3184.84  E(vib)   ...       0.00 
freq.    3194.82  E(vib)   ...       0.00 
freq.    3197.68  E(vib)   ...       0.00 
freq.    3200.41  E(vib)   ...       0.00 
freq.    3208.35  E(vib)   ...       0.00 
freq.    3212.73  E(vib)   ...       0.00 
freq.    3221.24  E(vib)   ...       0.00 
freq.    3227.40  E(vib)   ...       0.00 
freq.    3232.79  E(vib)   ...       0.00 
freq.    3233.00  E(vib)   ...       0.00 
freq.    3246.10  E(vib)   ...       0.00 
freq.    3266.30  E(vib)   ...       0.00 
freq.    3518.90  E(vib)   ...       0.00 

------------
INNER ENERGY
------------

The inner energy is: U= E(el) + E(ZPE) + E(vib) + E(rot) + E(trans)
    E(el)   - is the total energy from the electronic structure calculation
              = E(kin-el) + E(nuc-el) + E(el-el) + E(nuc-nuc)
    E(ZPE)  - the the zero temperature vibrational energy from the frequency calculation
    E(vib)  - the the finite temperature correction to E(ZPE) due to population
              of excited vibrational states
    E(rot)  - is the rotational thermal energy
    E(trans)- is the translational thermal energy

Summary of contributions to the inner energy U:
Electronic energy                ...  -1088.68540041 Eh
Zero point energy                ...      0.34026324 Eh     213.52 kcal/mol
Thermal vibrational correction   ...      0.01704479 Eh      10.70 kcal/mol
Thermal rotational correction    ...      0.00141627 Eh       0.89 kcal/mol
Thermal translational correction ...      0.00141627 Eh       0.89 kcal/mol
-----------------------------------------------------------------------
Total thermal energy                  -1088.32525984 Eh


Summary of corrections to the electronic energy:
(perhaps to be used in another calculation)
Total thermal correction                  0.01987733 Eh      12.47 kcal/mol
Non-thermal (ZPE) correction              0.34026324 Eh     213.52 kcal/mol
-----------------------------------------------------------------------
Total correction                          0.36014058 Eh     225.99 kcal/mol


--------
ENTHALPY
--------

The enthalpy is H = U + kB*T
                kB is Boltzmann's constant
Total free energy                 ...  -1088.32525984 Eh 
Thermal Enthalpy correction       ...      0.00094421 Eh       0.59 kcal/mol
-----------------------------------------------------------------------
Total Enthalpy                    ...  -1088.32431563 Eh


Note: Only C1 symmetry has been detected, increase convergence thresholds 
      if your molecule has a higher symmetry. Symmetry factor of 1.0 is   
      used for the rotational entropy correction. 
 

Note: Rotational entropy computed according to Herzberg 
Infrared and Raman Spectra, Chapter V,1, Van Nostrand Reinhold, 1945 
Point Group:  C1, Symmetry Number:   1  
Rotational constants in cm-1:     0.015059     0.004654     0.004033 

Vibrational entropy computed according to the QRRHO of S. Grimme
Chem.Eur.J. 2012 18 9955


-------
ENTROPY
-------

The entropy contributions are T*S = T*(S(el)+S(vib)+S(rot)+S(trans))
     S(el)   - electronic entropy
     S(vib)  - vibrational entropy
     S(rot)  - rotational entropy
     S(trans)- translational entropy
The entropies will be listed as multiplied by the temperature to get
units of energy

Electronic entropy                ...      0.00000000 Eh      0.00 kcal/mol
Vibrational entropy               ...      0.03100941 Eh     19.46 kcal/mol
Rotational entropy                ...      0.01662948 Eh     10.44 kcal/mol
Translational entropy             ...      0.02047516 Eh     12.85 kcal/mol
-----------------------------------------------------------------------
Final entropy term                ...      0.06811405 Eh     42.74 kcal/mol

In case the symmetry of your molecule has not been determined correctly
or in case you have a reason to use a different symmetry number we print 
out the resulting rotational entropy values for sn=1,12 :
 --------------------------------------------------------
|  sn= 1 | S(rot)=       0.01662948 Eh     10.44 kcal/mol|
|  sn= 2 | S(rot)=       0.01597502 Eh     10.02 kcal/mol|
|  sn= 3 | S(rot)=       0.01559219 Eh      9.78 kcal/mol|
|  sn= 4 | S(rot)=       0.01532057 Eh      9.61 kcal/mol|
|  sn= 5 | S(rot)=       0.01510988 Eh      9.48 kcal/mol|
|  sn= 6 | S(rot)=       0.01493774 Eh      9.37 kcal/mol|
|  sn= 7 | S(rot)=       0.01479219 Eh      9.28 kcal/mol|
|  sn= 8 | S(rot)=       0.01466611 Eh      9.20 kcal/mol|
|  sn= 9 | S(rot)=       0.01455490 Eh      9.13 kcal/mol|
|  sn=10 | S(rot)=       0.01445542 Eh      9.07 kcal/mol|
|  sn=11 | S(rot)=       0.01436543 Eh      9.01 kcal/mol|
|  sn=12 | S(rot)=       0.01428328 Eh      8.96 kcal/mol|
 --------------------------------------------------------


-------------------
GIBBS FREE ENERGY
-------------------

The Gibbs free energy is G = H - T*S

Total enthalpy                    ...  -1088.32431563 Eh 
Total entropy correction          ...     -0.06811405 Eh    -42.74 kcal/mol
-----------------------------------------------------------------------
Final Gibbs free energy         ...  -1088.39242968 Eh

For completeness - the Gibbs free energy minus the electronic energy
G-E(el)                           ...      0.29297073 Eh    183.84 kcal/mol


Timings for individual modules:

Sum of individual times         ...    33602.240 sec (= 560.037 min)
GTO integral calculation        ...       84.894 sec (=   1.415 min)   0.3 %
SCF iterations                  ...    21400.350 sec (= 356.673 min)  63.7 %
SCF Gradient evaluation         ...     5488.031 sec (=  91.467 min)  16.3 %
Geometry relaxation             ...        4.920 sec (=   0.082 min)   0.0 %
Analytical frequency calculation...     5141.841 sec (=  85.697 min)  15.3 %
CHELPG charge generation        ...     1482.203 sec (=  24.703 min)   4.4 %
                             ****ORCA TERMINATED NORMALLY****
TOTAL RUN TIME: 0 days 9 hours 20 minutes 48 seconds 649 msec
