
Lmod is automatically replacing "intel/2020.1.217" with "gcc/10.3.0".


Due to MODULEPATH changes, the following have been reloaded:
  1) blis/0.8.1     2) flexiblas/3.0.4

The following have been reloaded with a version change:
  1) gcccore/.9.3.0 => gcccore/.10.3.0        3) openmpi/4.0.3 => openmpi/4.1.1
  2) libfabric/1.10.1 => libfabric/1.12.1     4) ucx/1.8.0 => ucx/1.9.0

To execute ORCA, run: 
   ${EBROOTORCA}/orca orca.inp > orca.out

                                 *****************
                                 * O   R   C   A *
                                 *****************

                                            #,                                       
                                            ###                                      
                                            ####                                     
                                            #####                                    
                                            ######                                   
                                           ########,                                 
                                     ,,################,,,,,                         
                               ,,#################################,,                 
                          ,,##########################################,,             
                       ,#########################################, ''#####,          
                    ,#############################################,,   '####,        
                  ,##################################################,,,,####,       
                ,###########''''           ''''###############################       
              ,#####''   ,,,,##########,,,,          '''####'''          '####       
            ,##' ,,,,###########################,,,                        '##       
           ' ,,###''''                  '''############,,,                           
         ,,##''                                '''############,,,,        ,,,,,,###''
      ,#''                                            '''#######################'''  
     '                                                          ''''####''''         
             ,#######,   #######,   ,#######,      ##                                
            ,#'     '#,  ##    ##  ,#'     '#,    #''#        ######   ,####,        
            ##       ##  ##   ,#'  ##            #'  '#       #        #'  '#        
            ##       ##  #######   ##           ,######,      #####,   #    #        
            '#,     ,#'  ##    ##  '#,     ,#' ,#      #,         ##   #,  ,#        
             '#######'   ##     ##  '#######'  #'      '#     #####' # '####'        



                  #######################################################
                  #                        -***-                        #
                  #          Department of theory and spectroscopy      #
                  #    Directorship and core code : Frank Neese         #
                  #        Max Planck Institute fuer Kohlenforschung    #
                  #                Kaiser Wilhelm Platz 1               #
                  #                 D-45470 Muelheim/Ruhr               #
                  #                      Germany                        #
                  #                                                     #
                  #                  All rights reserved                #
                  #                        -***-                        #
                  #######################################################


                         Program Version 5.0.3 -  RELEASE  -


 With contributions from (in alphabetic order):
   Daniel Aravena         : Magnetic Suceptibility
   Michael Atanasov       : Ab Initio Ligand Field Theory (pilot matlab implementation)
   Alexander A. Auer      : GIAO ZORA, VPT2 properties, NMR spectrum
   Ute Becker             : Parallelization
   Giovanni Bistoni       : ED, misc. LED, open-shell LED, HFLD
   Martin Brehm           : Molecular dynamics
   Dmytro Bykov           : SCF Hessian
   Vijay G. Chilkuri      : MRCI spin determinant printing, contributions to CSF-ICE
   Dipayan Datta          : RHF DLPNO-CCSD density
   Achintya Kumar Dutta   : EOM-CC, STEOM-CC
   Dmitry Ganyushin       : Spin-Orbit,Spin-Spin,Magnetic field MRCI
   Miquel Garcia          : C-PCM and meta-GGA Hessian, CC/C-PCM, Gaussian charge scheme
   Yang Guo               : DLPNO-NEVPT2, F12-NEVPT2, CIM, IAO-localization
   Andreas Hansen         : Spin unrestricted coupled pair/coupled cluster methods
   Benjamin Helmich-Paris : MC-RPA, TRAH-SCF, COSX integrals
   Lee Huntington         : MR-EOM, pCC
   Robert Izsak           : Overlap fitted RIJCOSX, COSX-SCS-MP3, EOM
   Marcus Kettner         : VPT2
   Christian Kollmar      : KDIIS, OOCD, Brueckner-CCSD(T), CCSD density, CASPT2, CASPT2-K
   Simone Kossmann        : Meta GGA functionals, TD-DFT gradient, OOMP2, MP2 Hessian
   Martin Krupicka        : Initial AUTO-CI
   Lucas Lang             : DCDCAS
   Marvin Lechner         : AUTO-CI (C++ implementation), FIC-MRCC
   Dagmar Lenk            : GEPOL surface, SMD
   Dimitrios Liakos       : Extrapolation schemes; Compound Job, initial MDCI parallelization
   Dimitrios Manganas     : Further ROCIS development; embedding schemes
   Dimitrios Pantazis     : SARC Basis sets
   Anastasios Papadopoulos: AUTO-CI, single reference methods and gradients
   Taras Petrenko         : DFT Hessian,TD-DFT gradient, ASA, ECA, R-Raman, ABS, FL, XAS/XES, NRVS
   Peter Pinski           : DLPNO-MP2, DLPNO-MP2 Gradient
   Christoph Reimann      : Effective Core Potentials
   Marius Retegan         : Local ZFS, SOC
   Christoph Riplinger    : Optimizer, TS searches, QM/MM, DLPNO-CCSD(T), (RO)-DLPNO pert. Triples
   Tobias Risthaus        : Range-separated hybrids, TD-DFT gradient, RPA, STAB
   Michael Roemelt        : Original ROCIS implementation
   Masaaki Saitow         : Open-shell DLPNO-CCSD energy and density
   Barbara Sandhoefer     : DKH picture change effects
   Avijit Sen             : IP-ROCIS
   Kantharuban Sivalingam : CASSCF convergence, NEVPT2, FIC-MRCI
   Bernardo de Souza      : ESD, SOC TD-DFT
   Georgi Stoychev        : AutoAux, RI-MP2 NMR, DLPNO-MP2 response
   Willem Van den Heuvel  : Paramagnetic NMR
   Boris Wezisla          : Elementary symmetry handling
   Frank Wennmohs         : Technical directorship


 We gratefully acknowledge several colleagues who have allowed us to
 interface, adapt or use parts of their codes:
   Stefan Grimme, W. Hujo, H. Kruse, P. Pracht,  : VdW corrections, initial TS optimization,
                  C. Bannwarth, S. Ehlert          DFT functionals, gCP, sTDA/sTD-DF
   Ed Valeev, F. Pavosevic, A. Kumar             : LibInt (2-el integral package), F12 methods
   Garnet Chan, S. Sharma, J. Yang, R. Olivares  : DMRG
   Ulf Ekstrom                                   : XCFun DFT Library
   Mihaly Kallay                                 : mrcc  (arbitrary order and MRCC methods)
   Jiri Pittner, Ondrej Demel                    : Mk-CCSD
   Frank Weinhold                                : gennbo (NPA and NBO analysis)
   Christopher J. Cramer and Donald G. Truhlar   : smd solvation model
   Lars Goerigk                                  : TD-DFT with DH, B97 family of functionals
   V. Asgeirsson, H. Jonsson                     : NEB implementation
   FAccTs GmbH                                   : IRC, NEB, NEB-TS, DLPNO-Multilevel, CI-OPT
                                                   MM, QMMM, 2- and 3-layer-ONIOM, Crystal-QMMM,
                                                   LR-CPCM, SF, NACMEs, symmetry and pop. for TD-DFT,
                                                   nearIR, NL-DFT gradient (VV10), updates on ESD,
                                                   ML-optimized integration grids
   S Lehtola, MJT Oliveira, MAL Marques          : LibXC Library
   Liviu Ungur et al                             : ANISO software


 Your calculation uses the libint2 library for the computation of 2-el integrals
 For citations please refer to: http://libint.valeyev.net

 Your ORCA version has been built with support for libXC version: 5.1.0
 For citations please refer to: https://tddft.org/programs/libxc/

 This ORCA versions uses:
   CBLAS   interface :  Fast vector & matrix operations
   LAPACKE interface :  Fast linear algebra routines
   SCALAPACK package :  Parallel linear algebra routines
   Shared memory     :  Shared parallel matrices
   BLAS/LAPACK       :  OpenBLAS 0.3.15  USE64BITINT DYNAMIC_ARCH NO_AFFINITY Zen SINGLE_THREADED
        Core in use  :  Zen
   Copyright (c) 2011-2014, The OpenBLAS Project


Your calculation utilizes the atom-pairwise dispersion correction
with the zero-damping scheme (D30)
Cite in your paper:
S.Grimme, J.Antony, S.Ehrlich and H.Krieg, J.Chem.Phys., 132, (2010), 154104 
   

XCFun DFT library Copyright 2009-2010 Ulf Ekstrom and contributors.
See http://admol.org/xcfun for more information.
This is free software; see the source code for copying conditions.
There is ABSOLUTELY NO WARRANTY; not even for MERCHANTABILITY or FITNESS FOR A PARTICULAR PURPOSE.
For details see the documentation.
Scientific users of this library should cite U. Ekstrom, L. Visscher, R. Bast, A. J. Thorvaldsen and K. Ruud;
J.Chem.Theor.Comp. 2010, DOI: 10.1021/ct100117s
XCFun Version 0.99 

================================================================================

----- Orbital basis set information -----
Your calculation utilizes the basis: def2-TZVPP
   F. Weigend and R. Ahlrichs, Phys. Chem. Chem. Phys. 7, 3297 (2005).

----- AuxJ basis set information -----
Your calculation utilizes the auxiliary basis: def2/J
   F. Weigend, Phys. Chem. Chem. Phys. 8, 1057 (2006).

================================================================================
                                        WARNINGS
                       Please study these warnings very carefully!
================================================================================


WARNING: Geometry Optimization
  ===> : Switching off AutoStart
         For restart on a previous wavefunction, please use MOREAD

INFO   : the flag for use of the SHARK integral package has been found!

================================================================================
                                       INPUT FILE
================================================================================
NAME = Fluoxetine_9.inp
|  1> ! wB97X-D3 TightOpt Freq def2-TZVPP def2/J RIJCOSX TightSCF defgrid3 CHELPG
|  2> %maxcore 3200
|  3> 
|  4> %pal nprocs 8 
|  5> end
|  6> 
|  7> %chelpg
|  8> grid 0.1
|  9> rmax 3.0
| 10> end
| 11> 
| 12> 
| 13> *xyz 1 1
| 14>  C    -3.2947352093    2.4193279533    -1.7461468918
| 15>  N    -2.4576777266    2.0958935384    -0.5803045590
| 16>  C    -3.2185815889    1.6079314175    0.6015919843
| 17>  C    -2.2928357345    0.8198099273    1.5222520910
| 18>  C    -1.7102148419    -0.4163781023    0.7985810849
| 19>  C    -2.8202177356    -1.2703781265    0.2145400751
| 20>  C    -3.0507783481    -1.3437833943    -1.1527209411
| 21>  C    -4.0862355298    -2.1215239132    -1.6444620622
| 22>  C    -4.9020572100    -2.8244083865    -0.7757326464
| 23>  C    -4.6718638097    -2.7591746224    0.5890017812
| 24>  C    -3.6353657632    -1.9881737091    1.0825453682
| 25>  O    -0.8375749525    0.0102382295    -0.2527777190
| 26>  C    0.5239474446    0.1020864338    -0.0448348976
| 27>  C    1.2877693664    0.2290404389    -1.2034208722
| 28>  C    2.6578596742    0.3600449930    -1.1204035355
| 29>  C    3.2711121868    0.3636037678    0.1263654383
| 30>  C    2.5137668146    0.2414754516    1.2805022221
| 31>  C    1.1374306357    0.1141803726    1.1997811981
| 32>  C    4.7612803523    0.5544223952    0.2273416256
| 33>  F    5.4121167763    0.0809870676    -0.8397621571
| 34>  F    5.0738482146    1.8620358856    0.3193821658
| 35>  F    5.2817108047    -0.0385249401    1.3067141713
| 36>  H    -2.6760978636    2.7824050165    -2.5641293985
| 37>  H    -4.0229579856    3.1864568697    -1.4881380392
| 38>  H    -3.8244389459    1.5263934294    -2.0728274034
| 39>  H    -1.9029191700    2.9160693763    -0.3151849283
| 40>  H    -4.0120317848    0.9490552184    0.2417397860
| 41>  H    -3.6725123432    2.4516655834    1.1239827400
| 42>  H    -2.8625525634    0.4865733300    2.3882420931
| 43>  H    -1.4790222467    1.4555316914    1.8780471863
| 44>  H    -1.1517508083    -1.0267557082    1.5152719637
| 45>  H    -2.3999673581    -0.8255876707    -1.8416622354
| 46>  H    -4.2491504512    -2.1812147419    -2.7095268421
| 47>  H    -5.7065123173    -3.4307870510    -1.1604137245
| 48>  H    -5.2947256614    -3.3165592352    1.2705258622
| 49>  H    -3.4501258354    -1.9541641360    2.1458457411
| 50>  H    0.7963402675    0.2076485304    -2.1632483521
| 51>  H    3.2513302149    0.4488160421    -2.0164670756
| 52>  H    2.9957213945    0.2444395599    2.2455105242
| 53>  H    0.5732402473    0.0244400049    2.1142401210
| 54>  H    -1.7755457822    1.3190161977    -0.7979023084
| 55> *
| 56> 
| 57> 
| 58>                          ****END OF INPUT****
================================================================================

                       *****************************
                       * Geometry Optimization Run *
                       *****************************

Geometry optimization settings:
Update method            Update   .... BFGS
Choice of coordinates    CoordSys .... Z-matrix Internals
Initial Hessian          InHess   .... Almoef's Model

Convergence Tolerances:
Energy Change            TolE     ....  1.0000e-06 Eh
Max. Gradient            TolMAXG  ....  1.0000e-04 Eh/bohr
RMS Gradient             TolRMSG  ....  3.0000e-05 Eh/bohr
Max. Displacement        TolMAXD  ....  1.0000e-03 bohr
RMS Displacement         TolRMSD  ....  6.0000e-04 bohr
Strict Convergence                ....  False
------------------------------------------------------------------------------
                        ORCA OPTIMIZATION COORDINATE SETUP
------------------------------------------------------------------------------

The optimization will be done in new redundant internal coordinates
Making redundant internal coordinates   ...  (new redundants) done
Evaluating the initial hessian          ...  (Almloef) done
Evaluating the coordinates              ...  done
Calculating the B-matrix                .... done
Calculating the G-matrix                .... done
Diagonalizing the G-matrix              .... done
Small eigenvalue found = 2.853e-03
Small eigenvalue found = 4.683e-03
Small eigenvalue found = 7.009e-03
Small eigenvalue found = 1.122e-02
Small eigenvalue found = 1.407e-02
Small eigenvalue found = 1.727e-02
The first mode is                       ....   99
The number of degrees of freedom        ....  117

    -----------------------------------------------------------------
                    Redundant Internal Coordinates


    -----------------------------------------------------------------
         Definition                    Initial Value    Approx d2E/dq
    -----------------------------------------------------------------
      1. B(N   1,C   0)                  1.4712         0.415248   
      2. B(C   2,N   1)                  1.4879         0.390500   
      3. B(C   3,C   2)                  1.5250         0.380440   
      4. B(C   4,C   3)                  1.5464         0.351751   
      5. B(C   5,C   4)                  1.5174         0.391262   
      6. B(C   6,C   5)                  1.3885         0.628235   
      7. B(C   7,C   6)                  1.3852         0.635842   
      8. B(C   8,C   7)                  1.3836         0.639700   
      9. B(C   9,C   8)                  1.3855         0.635098   
     10. B(C  10,C   9)                  1.3829         0.641355   
     11. B(C  10,C   5)                  1.3904         0.623947   
     12. B(O  11,C   4)                  1.4314         0.480675   
     13. B(C  12,O  11)                  1.3804         0.579750   
     14. B(C  13,C  12)                  1.3935         0.616798   
     15. B(C  14,C  13)                  1.3788         0.650942   
     16. B(C  15,C  14)                  1.3894         0.626099   
     17. B(C  16,C  15)                  1.3858         0.634446   
     18. B(C  17,C  16)                  1.3846         0.637396   
     19. B(C  17,C  12)                  1.3877         0.630210   
     20. B(C  18,C  15)                  1.5057         0.408419   
     21. B(F  19,C  18)                  1.3366         0.632701   
     22. B(F  20,C  18)                  1.3476         0.607596   
     23. B(F  21,C  18)                  1.3370         0.631798   
     24. B(H  22,C   0)                  1.0879         0.362824   
     25. B(H  23,C   0)                  1.0887         0.361765   
     26. B(H  24,C   0)                  1.0884         0.362208   
     27. B(H  25,N   1)                  1.0251         0.409429   
     28. B(H  26,C   2)                  1.0923         0.357037   
     29. B(H  27,C   2)                  1.0913         0.358447   
     30. B(H  28,C   3)                  1.0888         0.361644   
     31. B(H  29,C   3)                  1.0923         0.357127   
     32. B(H  30,C   4)                  1.0946         0.354102   
     33. B(H  31,C   6)                  1.0801         0.373370   
     34. B(H  32,C   7)                  1.0791         0.374805   
     35. B(H  33,C   8)                  1.0783         0.375856   
     36. B(H  34,C   9)                  1.0785         0.375673   
     37. B(H  35,C  10)                  1.0799         0.373779   
     38. B(H  36,C  13)                  1.0785         0.375596   
     39. B(H  37,C  14)                  1.0784         0.375732   
     40. B(H  38,C  16)                  1.0787         0.375404   
     41. B(H  39,C  17)                  1.0782         0.375999   
     42. B(H  40,N   1)                  1.0565         0.364761   
     43. A(N   1,C   0,H  22)          110.2210         0.328444   
     44. A(H  22,C   0,H  24)          108.9572         0.291451   
     45. A(N   1,C   0,H  24)          109.5351         0.328352   
     46. A(H  22,C   0,H  23)          108.8666         0.291395   
     47. A(H  23,C   0,H  24)          108.8845         0.291317   
     48. A(N   1,C   0,H  23)          110.3446         0.328286   
     49. A(C   0,N   1,C   2)          114.2418         0.368178   
     50. A(C   0,N   1,H  25)          109.6926         0.332216   
     51. A(C   2,N   1,H  25)          109.4945         0.328857   
     52. A(C   2,N   1,H  40)          104.6329         0.322667   
     53. A(H  25,N   1,H  40)          106.9899         0.292567   
     54. A(C   0,N   1,H  40)          111.4565         0.325939   
     55. A(N   1,C   2,H  27)          109.8407         0.324489   
     56. A(C   3,C   2,H  26)          109.1534         0.324834   
     57. A(H  26,C   2,H  27)          108.7790         0.290240   
     58. A(N   1,C   2,C   3)          109.7904         0.364972   
     59. A(N   1,C   2,H  26)          107.9143         0.324279   
     60. A(C   3,C   2,H  27)          111.2896         0.325045   
     61. A(C   2,C   3,H  29)          110.3741         0.324848   
     62. A(C   2,C   3,H  28)          108.7042         0.325520   
     63. A(C   4,C   3,H  29)          109.6940         0.320699   
     64. A(C   4,C   3,H  28)          108.9460         0.321359   
     65. A(H  28,C   3,H  29)          107.9931         0.290656   
     66. A(C   2,C   3,C   4)          111.0580         0.360757   
     67. A(C   5,C   4,H  30)          108.1437         0.325893   
     68. A(C   3,C   4,H  30)          109.3655         0.320254   
     69. A(O  11,C   4,H  30)          109.6384         0.335147   
     70. A(C   3,C   4,O  11)          109.5826         0.373171   
     71. A(C   3,C   4,C   5)          110.7579         0.362488   
     72. A(C   5,C   4,O  11)          109.3294         0.380101   
     73. A(C   4,C   5,C   6)          122.0207         0.400852   
     74. A(C   6,C   5,C  10)          119.3472         0.435595   
     75. A(C   4,C   5,C  10)          118.6290         0.400369   
     76. A(C   7,C   6,H  31)          119.5588         0.356603   
     77. A(C   5,C   6,H  31)          120.1756         0.355875   
     78. A(C   5,C   6,C   7)          120.2226         0.437080   
     79. A(C   6,C   7,H  32)          119.6222         0.356836   
     80. A(C   6,C   7,C   8)          120.2049         0.438508   
     81. A(C   8,C   7,H  32)          120.1717         0.357203   
     82. A(C   9,C   8,H  33)          120.1186         0.356935   
     83. A(C   7,C   8,H  33)          120.1036         0.357373   
     84. A(C   7,C   8,C   9)          119.7734         0.438415   
     85. A(C  10,C   9,H  34)          119.7022         0.357500   
     86. A(C   8,C   9,H  34)          120.1427         0.356905   
     87. A(C   8,C   9,C  10)          120.1528         0.438620   
     88. A(C   9,C  10,H  35)          119.8387         0.357193   
     89. A(C   5,C  10,H  35)          119.8610         0.355528   
     90. A(C   5,C  10,C   9)          120.2951         0.437221   
     91. A(C   4,O  11,C  12)          120.6977         0.404579   
     92. A(C  13,C  12,C  17)          120.1718         0.434938   
     93. A(O  11,C  12,C  17)          124.8731         0.427315   
     94. A(O  11,C  12,C  13)          114.9268         0.425672   
     95. A(C  12,C  13,H  36)          119.2323         0.355126   
     96. A(C  12,C  13,C  14)          120.2151         0.437482   
     97. A(C  14,C  13,H  36)          120.5454         0.358391   
     98. A(C  13,C  14,C  15)          119.5272         0.438665   
     99. A(C  15,C  14,H  37)          120.1642         0.356050   
    100. A(C  13,C  14,H  37)          120.3055         0.358413   
    101. A(C  16,C  15,C  18)          119.7466         0.404598   
    102. A(C  14,C  15,C  18)          119.8221         0.403654   
    103. A(C  14,C  15,C  16)          120.3892         0.436639   
    104. A(C  15,C  16,C  17)          120.1850         0.438049   
    105. A(C  17,C  16,H  38)          119.7726         0.357081   
    106. A(C  15,C  16,H  38)          120.0424         0.356799   
    107. A(C  12,C  17,C  16)          119.5094         0.437520   
    108. A(C  16,C  17,H  39)          118.5776         0.357177   
    109. A(C  12,C  17,H  39)          121.9128         0.356489   
    110. A(F  20,C  18,F  21)          106.5538         0.424527   
    111. A(F  19,C  18,F  21)          107.3325         0.427616   
    112. A(C  15,C  18,F  21)          112.5306         0.399959   
    113. A(F  19,C  18,F  20)          106.5762         0.424636   
    114. A(C  15,C  18,F  20)          110.9220         0.397222   
    115. A(C  15,C  18,F  19)          112.5495         0.400059   
    116. D(C   2,N   1,C   0,H  24)    -60.9851         0.015750   
    117. D(H  25,N   1,C   0,H  24)    175.6557         0.015750   
    118. D(H  25,N   1,C   0,H  23)    -64.4870         0.015750   
    119. D(H  25,N   1,C   0,H  22)     55.7855         0.015750   
    120. D(H  40,N   1,C   0,H  24)     57.3526         0.015750   
    121. D(H  40,N   1,C   0,H  22)    -62.5175         0.015750   
    122. D(H  40,N   1,C   0,H  23)    177.2100         0.015750   
    123. D(C   2,N   1,C   0,H  22)    179.1448         0.015750   
    124. D(C   2,N   1,C   0,H  23)     58.8723         0.015750   
    125. D(H  26,C   2,N   1,H  40)    -82.5040         0.013947   
    126. D(H  26,C   2,N   1,H  25)    163.1156         0.013947   
    127. D(H  26,C   2,N   1,C   0)     39.6494         0.013947   
    128. D(H  27,C   2,N   1,H  25)     44.6706         0.013947   
    129. D(C   3,C   2,N   1,C   0)    158.5167         0.013947   
    130. D(C   3,C   2,N   1,H  40)     36.3633         0.013947   
    131. D(H  27,C   2,N   1,H  40)    159.0510         0.013947   
    132. D(C   3,C   2,N   1,H  25)    -78.0172         0.013947   
    133. D(H  27,C   2,N   1,C   0)    -78.7956         0.013947   
    134. D(H  29,C   3,C   2,H  26)    178.8499         0.011534   
    135. D(H  29,C   3,C   2,N   1)     60.7483         0.011534   
    136. D(H  28,C   3,C   2,H  27)     57.1919         0.011534   
    137. D(H  28,C   3,C   2,H  26)    -62.8801         0.011534   
    138. D(C   4,C   3,C   2,H  27)    177.0376         0.011534   
    139. D(H  28,C   3,C   2,N   1)    179.0183         0.011534   
    140. D(C   4,C   3,C   2,H  26)     56.9657         0.011534   
    141. D(H  29,C   3,C   2,H  27)    -61.0781         0.011534   
    142. D(C   4,C   3,C   2,N   1)    -61.1360         0.011534   
    143. D(O  11,C   4,C   3,C   2)     66.6987         0.009961   
    144. D(C   5,C   4,C   3,H  29)   -176.2812         0.009961   
    145. D(C   5,C   4,C   3,H  28)     65.7003         0.009961   
    146. D(C   5,C   4,C   3,C   2)    -54.0013         0.009961   
    147. D(H  30,C   4,C   3,H  29)     64.6270         0.009961   
    148. D(H  30,C   4,C   3,H  28)    -53.3915         0.009961   
    149. D(H  30,C   4,C   3,C   2)   -173.0931         0.009961   
    150. D(O  11,C   4,C   3,H  29)    -55.5812         0.009961   
    151. D(O  11,C   4,C   3,H  28)   -173.5997         0.009961   
    152. D(C  10,C   5,C   4,H  30)     49.0439         0.011385   
    153. D(C  10,C   5,C   4,O  11)    168.3674         0.011385   
    154. D(C  10,C   5,C   4,C   3)    -70.7824         0.011385   
    155. D(C   6,C   5,C   4,H  30)   -131.5954         0.011385   
    156. D(C   6,C   5,C   4,O  11)    -12.2718         0.011385   
    157. D(C   6,C   5,C   4,C   3)    108.5783         0.011385   
    158. D(H  31,C   6,C   5,C  10)   -177.3836         0.027355   
    159. D(H  31,C   6,C   5,C   4)      3.2601         0.027355   
    160. D(C   7,C   6,C   5,C  10)      0.2212         0.027355   
    161. D(C   7,C   6,C   5,C   4)   -179.1351         0.027355   
    162. D(H  32,C   7,C   6,H  31)     -1.6303         0.028066   
    163. D(H  32,C   7,C   6,C   5)   -179.2499         0.028066   
    164. D(C   8,C   7,C   6,H  31)    177.9774         0.028066   
    165. D(C   8,C   7,C   6,C   5)      0.3578         0.028066   
    166. D(H  33,C   8,C   7,H  32)     -0.2818         0.028430   
    167. D(H  33,C   8,C   7,C   6)   -179.8874         0.028430   
    168. D(C   9,C   8,C   7,H  32)    178.9469         0.028430   
    169. D(C   9,C   8,C   7,C   6)     -0.6587         0.028430   
    170. D(H  34,C   9,C   8,H  33)      0.1614         0.027996   
    171. D(H  34,C   9,C   8,C   7)   -179.0671         0.027996   
    172. D(C  10,C   9,C   8,H  33)    179.6083         0.027996   
    173. D(C  10,C   9,C   8,C   7)      0.3797         0.027996   
    174. D(C   5,C  10,C   9,C   8)      0.2010         0.028587   
    175. D(H  35,C  10,C   5,C   6)    178.6713         0.026960   
    176. D(H  35,C  10,C   5,C   4)     -1.9504         0.026960   
    177. D(C   9,C  10,C   5,C   6)     -0.5000         0.026960   
    178. D(C   9,C  10,C   5,C   4)    178.8783         0.026960   
    179. D(H  35,C  10,C   9,H  34)      0.4789         0.028587   
    180. D(H  35,C  10,C   9,C   8)   -178.9705         0.028587   
    181. D(C   5,C  10,C   9,H  34)    179.6503         0.028587   
    182. D(C  12,O  11,C   4,H  30)    -24.6001         0.018228   
    183. D(C  12,O  11,C   4,C   5)   -142.9955         0.018228   
    184. D(C  12,O  11,C   4,C   3)     95.4416         0.018228   
    185. D(C  17,C  12,O  11,C   4)    -15.8730         0.024444   
    186. D(C  13,C  12,O  11,C   4)    166.0701         0.024444   
    187. D(H  36,C  13,C  12,C  17)    179.3848         0.026309   
    188. D(H  36,C  13,C  12,O  11)     -2.4592         0.026309   
    189. D(C  14,C  13,C  12,C  17)      0.3546         0.026309   
    190. D(C  14,C  13,C  12,O  11)    178.5107         0.026309   
    191. D(H  37,C  14,C  13,H  36)      0.3902         0.029509   
    192. D(H  37,C  14,C  13,C  12)    179.4075         0.029509   
    193. D(C  15,C  14,C  13,H  36)   -178.9726         0.029509   
    194. D(C  15,C  14,C  13,C  12)      0.0446         0.029509   
    195. D(C  18,C  15,C  14,H  37)      2.7655         0.027158   
    196. D(C  18,C  15,C  14,C  13)   -177.8708         0.027158   
    197. D(C  16,C  15,C  14,H  37)   -179.5987         0.027158   
    198. D(C  16,C  15,C  14,C  13)     -0.2349         0.027158   
    199. D(H  38,C  16,C  15,C  18)     -2.3917         0.027934   
    200. D(H  38,C  16,C  15,C  14)    179.9707         0.027934   
    201. D(C  17,C  16,C  15,C  18)    177.6636         0.027934   
    202. D(C  17,C  16,C  15,C  14)      0.0259         0.027934   
    203. D(H  39,C  17,C  16,C  15)   -179.7824         0.028212   
    204. D(C  12,C  17,C  16,H  38)   -179.5733         0.028212   
    205. D(C  12,C  17,C  16,C  15)      0.3716         0.028212   
    206. D(H  39,C  17,C  12,C  13)    179.5982         0.027539   
    207. D(H  39,C  17,C  12,O  11)      1.6365         0.027539   
    208. D(C  16,C  17,C  12,C  13)     -0.5610         0.027539   
    209. D(H  39,C  17,C  16,H  38)      0.2727         0.028212   
    210. D(C  16,C  17,C  12,O  11)   -178.5228         0.027539   
    211. D(F  21,C  18,C  15,C  16)     30.8032         0.012358   
    212. D(F  21,C  18,C  15,C  14)   -151.5456         0.012358   
    213. D(F  20,C  18,C  15,C  16)    -88.4602         0.012358   
    214. D(F  20,C  18,C  15,C  14)     89.1910         0.012358   
    215. D(F  19,C  18,C  15,C  16)    152.2351         0.012358   
    216. D(F  19,C  18,C  15,C  14)    -30.1137         0.012358   
    -----------------------------------------------------------------

Number of atoms                         .... 41
Number of degrees of freedom            .... 216

         *************************************************************
         *                GEOMETRY OPTIMIZATION CYCLE   1            *
         *************************************************************
---------------------------------
CARTESIAN COORDINATES (ANGSTROEM)
---------------------------------
  C     -3.294735    2.419328   -1.746147
  N     -2.457678    2.095894   -0.580305
  C     -3.218582    1.607931    0.601592
  C     -2.292836    0.819810    1.522252
  C     -1.710215   -0.416378    0.798581
  C     -2.820218   -1.270378    0.214540
  C     -3.050778   -1.343783   -1.152721
  C     -4.086236   -2.121524   -1.644462
  C     -4.902057   -2.824408   -0.775733
  C     -4.671864   -2.759175    0.589002
  C     -3.635366   -1.988174    1.082545
  O     -0.837575    0.010238   -0.252778
  C      0.523947    0.102086   -0.044835
  C      1.287769    0.229040   -1.203421
  C      2.657860    0.360045   -1.120404
  C      3.271112    0.363604    0.126365
  C      2.513767    0.241475    1.280502
  C      1.137431    0.114180    1.199781
  C      4.761280    0.554422    0.227342
  F      5.412117    0.080987   -0.839762
  F      5.073848    1.862036    0.319382
  F      5.281711   -0.038525    1.306714
  H     -2.676098    2.782405   -2.564129
  H     -4.022958    3.186457   -1.488138
  H     -3.824439    1.526393   -2.072827
  H     -1.902919    2.916069   -0.315185
  H     -4.012032    0.949055    0.241740
  H     -3.672512    2.451666    1.123983
  H     -2.862553    0.486573    2.388242
  H     -1.479022    1.455532    1.878047
  H     -1.151751   -1.026756    1.515272
  H     -2.399967   -0.825588   -1.841662
  H     -4.249150   -2.181215   -2.709527
  H     -5.706512   -3.430787   -1.160414
  H     -5.294726   -3.316559    1.270526
  H     -3.450126   -1.954164    2.145846
  H      0.796340    0.207649   -2.163248
  H      3.251330    0.448816   -2.016467
  H      2.995721    0.244440    2.245511
  H      0.573240    0.024440    2.114240
  H     -1.775546    1.319016   -0.797902

----------------------------
CARTESIAN COORDINATES (A.U.)
----------------------------
  NO LB      ZA    FRAG     MASS         X           Y           Z
   0 C     6.0000    0    12.011   -6.226147    4.571867   -3.299739
   1 N     7.0000    0    14.007   -4.644338    3.960665   -1.096617
   2 C     6.0000    0    12.011   -6.082238    3.038550    1.136844
   3 C     6.0000    0    12.011   -4.332832    1.549216    2.876640
   4 C     6.0000    0    12.011   -3.231838   -0.786841    1.509100
   5 C     6.0000    0    12.011   -5.329439   -2.400667    0.405422
   6 C     6.0000    0    12.011   -5.765136   -2.539383   -2.178327
   7 C     6.0000    0    12.011   -7.721866   -4.009099   -3.107583
   8 C     6.0000    0    12.011   -9.263546   -5.337358   -1.465922
   9 C     6.0000    0    12.011   -8.828543   -5.214084    1.113052
  10 C     6.0000    0    12.011   -6.869846   -3.757104    2.045714
  11 O     8.0000    0    15.999   -1.582787    0.019347   -0.477681
  12 C     6.0000    0    12.011    0.990117    0.192915   -0.084726
  13 C     6.0000    0    12.011    2.433531    0.432824   -2.274136
  14 C     6.0000    0    12.011    5.022627    0.680386   -2.117256
  15 C     6.0000    0    12.011    6.181506    0.687112    0.238796
  16 C     6.0000    0    12.011    4.750331    0.456322    2.419799
  17 C     6.0000    0    12.011    2.149432    0.215770    2.267258
  18 C     6.0000    0    12.011    8.997516    1.047706    0.429613
  19 F     9.0000    0    18.998   10.227419    0.153043   -1.586920
  20 F     9.0000    0    18.998    9.588184    3.518738    0.603545
  21 F     9.0000    0    18.998    9.980987   -0.072802    2.469332
  22 H     1.0000    0     1.008   -5.057092    5.257983   -4.845502
  23 H     1.0000    0     1.008   -7.602289    6.021531   -2.812173
  24 H     1.0000    0     1.008   -7.227142    2.884466   -3.917076
  25 H     1.0000    0     1.008   -3.595996    5.510573   -0.595613
  26 H     1.0000    0     1.008   -7.581641    1.793454    0.456822
  27 H     1.0000    0     1.008   -6.940043    4.632977    2.124020
  28 H     1.0000    0     1.008   -5.409440    0.919490    4.513123
  29 H     1.0000    0     1.008   -2.794947    2.750556    3.548995
  30 H     1.0000    0     1.008   -2.176494   -1.940287    2.863449
  31 H     1.0000    0     1.008   -4.535281   -1.560135   -3.480237
  32 H     1.0000    0     1.008   -8.029731   -4.121899   -5.120264
  33 H     1.0000    0     1.008  -10.783745   -6.483248   -2.192864
  34 H     1.0000    0     1.008  -10.005581   -6.267389    2.400946
  35 H     1.0000    0     1.008   -6.519793   -3.692835    4.055061
  36 H     1.0000    0     1.008    1.504865    0.392399   -4.087947
  37 H     1.0000    0     1.008    6.144124    0.848139   -3.810571
  38 H     1.0000    0     1.008    5.661093    0.461924    4.243400
  39 H     1.0000    0     1.008    1.083267    0.046185    3.995335
  40 H     1.0000    0     1.008   -3.355295    2.492579   -1.507817

--------------------------------
INTERNAL COORDINATES (ANGSTROEM)
--------------------------------
 C      0   0   0     0.000000000000     0.00000000     0.00000000
 N      1   0   0     1.471211539866     0.00000000     0.00000000
 C      2   1   0     1.487938559941   114.24182459     0.00000000
 C      3   2   1     1.525042918190   109.79036217   158.51667157
 C      4   3   2     1.546385357565   111.05803452   298.86398931
 C      5   4   3     1.517407778576   110.75794737   305.99869009
 C      6   5   4     1.388506109384   122.02067794   108.57834485
 C      7   6   5     1.385229663288   120.22260828   180.86485464
 C      8   7   6     1.383583172262   120.20491111     0.35783020
 C      9   8   7     1.385548448592   119.77336574   359.34131128
 C     10   9   8     1.382879561269   120.15283724     0.37974479
 O      5   4   3     1.431382969603   109.58258698    66.69868306
 C     12   5   4     1.380369351808   120.69765623    95.44156305
 C     13  12   5     1.393507340552   114.92680099   166.07006547
 C     14  13  12     1.378840644496   120.21514639   178.51070844
 C     15  14  13     1.389433043770   119.52723862     0.04463696
 C     16  15  14     1.385827930925   120.38922613   359.76510456
 C     17  16  15     1.384565346310   120.18500025     0.02591455
 C     16  15  14     1.505725439924   119.82212219   182.12922878
 F     19  16  15     1.336577548546   112.54949096   329.88631509
 F     19  16  15     1.347599038980   110.92198973    89.19097323
 F     19  16  15     1.336966525623   112.53058418   208.45436756
 H      1   2   3     1.087948758253   110.22097893   179.14475209
 H      1   2   3     1.088744117926   110.34464615    58.87227191
 H      1   2   3     1.088410891713   109.53513638   299.01489799
 H      2   1   3     1.025053110711   109.69258147   236.64076739
 H      3   2   1     1.092325347017   107.91434340    39.64941913
 H      3   2   1     1.091252754428   109.84068364   281.20443725
 H      4   3   2     1.088835423124   108.70422038   179.01826572
 H      4   3   2     1.092256702481   110.37412998    60.74825673
 H      5   4   3     1.094572388819   109.36554281   186.90689363
 H      7   6   5     1.080148998821   120.17555327     3.26007291
 H      8   7   6     1.079104838294   119.62218853   180.75011637
 H      9   8   7     1.078342541250   120.10355183   180.11263284
 H     10   9   8     1.078475575000   120.14268253   180.93285349
 H     11  10   9     1.079850992000   119.83865947   181.02953684
 H     14  13  12     1.078530928702   119.23225173   357.54084162
 H     15  14  13     1.078432867514   120.30547981   179.40748557
 H     17  16  15     1.078670490069   120.04239334   179.97066279
 H     18  17  16     1.078238957574   118.57760848   180.21761996
 H      2   1   3     1.056499490113   111.45652267   118.33774853

---------------------------
INTERNAL COORDINATES (A.U.)
---------------------------
 C      0   0   0     0.000000000000     0.00000000     0.00000000
 N      1   0   0     2.780186895411     0.00000000     0.00000000
 C      2   1   0     2.811796382391   114.24182459     0.00000000
 C      3   2   1     2.881913457856   109.79036217   158.51667157
 C      4   3   2     2.922244823303   111.05803452   298.86398931
 C      5   4   3     2.867485134991   110.75794737   305.99869009
 C      6   5   4     2.623896282013   122.02067794   108.57834485
 C      7   6   5     2.617704696199   120.22260828   180.86485464
 C      8   7   6     2.614593279077   120.20491111     0.35783020
 C      9   8   7     2.618307113119   119.77336574   359.34131128
 C     10   9   8     2.613263646996   120.15283724     0.37974479
 O      5   4   3     2.704921805308   109.58258698    66.69868306
 C     12   5   4     2.608520038575   120.69765623    95.44156305
 C     13  12   5     2.633347239253   114.92680099   166.07006547
 C     14  13  12     2.605631200418   120.21514639   178.51070844
 C     15  14  13     2.625647934145   119.52723862     0.04463696
 C     16  15  14     2.618835258186   120.38922613   359.76510456
 C     17  16  15     2.616449319044   120.18500025     0.02591455
 C     16  15  14     2.845408714334   119.82212219   182.12922878
 F     19  16  15     2.525765523500   112.54949096   329.88631509
 F     19  16  15     2.546593122007   110.92198973    89.19097323
 F     19  16  15     2.526500583647   112.53058418   208.45436756
 H      1   2   3     2.055925200838   110.22097893   179.14475209
 H      1   2   3     2.057428212798   110.34464615    58.87227191
 H      1   2   3     2.056798506515   109.53513638   299.01489799
 H      2   1   3     1.937069651968   109.69258147   236.64076739
 H      3   2   1     2.064195755002   107.91434340    39.64941913
 H      3   2   1     2.062168848757   109.84068364   281.20443725
 H      4   3   2     2.057600754616   108.70422038   179.01826572
 H      4   3   2     2.064066035629   110.37412998    60.74825673
 H      5   4   3     2.068442048619   109.36554281   186.90689363
 H      7   6   5     2.041185791601   120.17555327     3.26007291
 H      8   7   6     2.039212614165   119.62218853   180.75011637
 H      9   8   7     2.037772081520   120.10355183   180.11263284
 H     10   9   8     2.038023478874   120.14268253   180.93285349
 H     11  10   9     2.040622640323   119.83865947   181.02953684
 H     14  13  12     2.038128082210   119.23225173   357.54084162
 H     15  14  13     2.037942773420   120.30547981   179.40748557
 H     17  16  15     2.038391814974   120.04239334   179.97066279
 H     18  17  16     2.037576336739   118.57760848   180.21761996
 H      2   1   3     1.996494696940   111.45652267   118.33774853

---------------------
BASIS SET INFORMATION
---------------------
There are 5 groups of distinct atoms

 Group   1 Type C   : 11s6p2d1f contracted to 5s3p2d1f pattern {62111/411/11/1}
 Group   2 Type N   : 11s6p2d1f contracted to 5s3p2d1f pattern {62111/411/11/1}
 Group   3 Type O   : 11s6p2d1f contracted to 5s3p2d1f pattern {62111/411/11/1}
 Group   4 Type F   : 11s6p2d1f contracted to 5s3p2d1f pattern {62111/411/11/1}
 Group   5 Type H   : 5s2p1d contracted to 3s2p1d pattern {311/11/1}

Atom   0C    basis set group =>   1
Atom   1N    basis set group =>   2
Atom   2C    basis set group =>   1
Atom   3C    basis set group =>   1
Atom   4C    basis set group =>   1
Atom   5C    basis set group =>   1
Atom   6C    basis set group =>   1
Atom   7C    basis set group =>   1
Atom   8C    basis set group =>   1
Atom   9C    basis set group =>   1
Atom  10C    basis set group =>   1
Atom  11O    basis set group =>   3
Atom  12C    basis set group =>   1
Atom  13C    basis set group =>   1
Atom  14C    basis set group =>   1
Atom  15C    basis set group =>   1
Atom  16C    basis set group =>   1
Atom  17C    basis set group =>   1
Atom  18C    basis set group =>   1
Atom  19F    basis set group =>   4
Atom  20F    basis set group =>   4
Atom  21F    basis set group =>   4
Atom  22H    basis set group =>   5
Atom  23H    basis set group =>   5
Atom  24H    basis set group =>   5
Atom  25H    basis set group =>   5
Atom  26H    basis set group =>   5
Atom  27H    basis set group =>   5
Atom  28H    basis set group =>   5
Atom  29H    basis set group =>   5
Atom  30H    basis set group =>   5
Atom  31H    basis set group =>   5
Atom  32H    basis set group =>   5
Atom  33H    basis set group =>   5
Atom  34H    basis set group =>   5
Atom  35H    basis set group =>   5
Atom  36H    basis set group =>   5
Atom  37H    basis set group =>   5
Atom  38H    basis set group =>   5
Atom  39H    basis set group =>   5
Atom  40H    basis set group =>   5
---------------------------------
AUXILIARY/J BASIS SET INFORMATION
---------------------------------
There are 5 groups of distinct atoms

 Group   1 Type C   : 12s5p4d2f1g contracted to 6s4p3d1f1g pattern {711111/2111/211/2/1}
 Group   2 Type N   : 12s5p4d2f1g contracted to 6s4p3d1f1g pattern {711111/2111/211/2/1}
 Group   3 Type O   : 12s5p4d2f1g contracted to 6s4p3d1f1g pattern {711111/2111/211/2/1}
 Group   4 Type F   : 12s5p4d2f1g contracted to 6s4p3d1f1g pattern {711111/2111/211/2/1}
 Group   5 Type H   : 5s2p1d contracted to 3s1p1d pattern {311/2/1}

Atom   0C    basis set group =>   1
Atom   1N    basis set group =>   2
Atom   2C    basis set group =>   1
Atom   3C    basis set group =>   1
Atom   4C    basis set group =>   1
Atom   5C    basis set group =>   1
Atom   6C    basis set group =>   1
Atom   7C    basis set group =>   1
Atom   8C    basis set group =>   1
Atom   9C    basis set group =>   1
Atom  10C    basis set group =>   1
Atom  11O    basis set group =>   3
Atom  12C    basis set group =>   1
Atom  13C    basis set group =>   1
Atom  14C    basis set group =>   1
Atom  15C    basis set group =>   1
Atom  16C    basis set group =>   1
Atom  17C    basis set group =>   1
Atom  18C    basis set group =>   1
Atom  19F    basis set group =>   4
Atom  20F    basis set group =>   4
Atom  21F    basis set group =>   4
Atom  22H    basis set group =>   5
Atom  23H    basis set group =>   5
Atom  24H    basis set group =>   5
Atom  25H    basis set group =>   5
Atom  26H    basis set group =>   5
Atom  27H    basis set group =>   5
Atom  28H    basis set group =>   5
Atom  29H    basis set group =>   5
Atom  30H    basis set group =>   5
Atom  31H    basis set group =>   5
Atom  32H    basis set group =>   5
Atom  33H    basis set group =>   5
Atom  34H    basis set group =>   5
Atom  35H    basis set group =>   5
Atom  36H    basis set group =>   5
Atom  37H    basis set group =>   5
Atom  38H    basis set group =>   5
Atom  39H    basis set group =>   5
Atom  40H    basis set group =>   5


           ************************************************************
           *        Program running with 8 parallel MPI-processes     *
           *              working on a common directory               *
           ************************************************************
------------------------------------------------------------------------------
                           ORCA GTO INTEGRAL CALCULATION
                           -- RI-GTO INTEGRALS CHOSEN --
------------------------------------------------------------------------------
------------------------------------------------------------------------------
                   ___                                                        
                  /   \      - P O W E R E D   B Y -                         
                 /     \                                                     
                 |  |  |   _    _      __       _____    __    __             
                 |  |  |  | |  | |    /  \     |  _  \  |  |  /  |          
                  \  \/   | |  | |   /    \    | | | |  |  | /  /          
                 / \  \   | |__| |  /  /\  \   | |_| |  |  |/  /          
                |  |  |   |  __  | /  /__\  \  |    /   |      \           
                |  |  |   | |  | | |   __   |  |    \   |  |\   \          
                \     /   | |  | | |  |  |  |  | |\  \  |  | \   \       
                 \___/    |_|  |_| |__|  |__|  |_| \__\ |__|  \__/        
                                                                              
                      - O R C A' S   B I G   F R I E N D -                    
                                      &                                       
                       - I N T E G R A L  F E E D E R -                       
                                                                              
 v1 FN, 2020, v2 2021                                                         
------------------------------------------------------------------------------


Reading SHARK input file Fluoxetine_9.SHARKINP.tmp ... ok
----------------------
SHARK INTEGRAL PACKAGE
----------------------

Number of atoms                             ...     41
Number of basis functions                   ...    948
Number of shells                            ...    356
Maximum angular momentum                    ...      3
Integral batch strategy                     ... SHARK/LIBINT Hybrid
RI-J (if used) integral strategy            ... SPLIT-RIJ (Revised 2003 algorithm where possible)
Printlevel                                  ...      1
Contraction scheme used                     ... SEGMENTED contraction
Coulomb Range Separation                    ... NOT USED
Exchange Range Separation                   ... Long Range
   Mu parameter                             ...  0.250000
   Scaling (regular/separated)              ...  0.195728  0.804272
Finite Nucleus Model                        ... NOT USED
Auxiliary Coulomb fitting basis             ... AVAILABLE
   # of basis functions in Aux-J            ...   1287
   # of shells in Aux-J                     ...    425
   Maximum angular momentum in Aux-J        ...      4
Auxiliary J/K fitting basis                 ... NOT available
Auxiliary Correlation fitting basis         ... NOT available
Auxiliary 'external' fitting basis          ... NOT available
Integral threshold                          ...     2.500000e-11
Primitive cut-off                           ...     2.500000e-12
Primitive pair pre-selection threshold      ...     2.500000e-12

Calculating pre-screening integrals         ... done (  0.1 sec) Dimension = 356
Organizing shell pair data                  ... done (  0.3 sec)
Shell pair information
Total number of shell pairs                 ...     63546
Shell pairs after pre-screening             ...     42059
Total number of primitive shell pairs       ...    176069
Primitive shell pairs kept                  ...     79940
          la=0 lb=0:   9358 shell pairs
          la=1 lb=0:  12110 shell pairs
          la=1 lb=1:   3990 shell pairs
          la=2 lb=0:   6509 shell pairs
          la=2 lb=1:   4291 shell pairs
          la=2 lb=2:   1145 shell pairs
          la=3 lb=0:   2244 shell pairs
          la=3 lb=1:   1483 shell pairs
          la=3 lb=2:    779 shell pairs
          la=3 lb=3:    150 shell pairs

Calculating one electron integrals          ... done (  0.1 sec)
Calculating RI/J V-Matrix + Cholesky decomp.... done (  0.2 sec)
Calculating Nuclear repulsion               ... done (  0.0 sec) ENN=   1814.870632978401 Eh

SHARK setup successfully completed in   1.2 seconds

Maximum memory used throughout the entire GTOINT-calculation: 64.8 MB
[1695247010.922220] [nc10354:1705056:0]          mpool.c:42   UCX  WARN  object 0xb08fac0 was not returned to mpool ucp_requests
[1695247010.922240] [nc10354:1705056:0]          mpool.c:42   UCX  WARN  object 0xb08fc80 was not returned to mpool ucp_requests
[1695247010.922243] [nc10354:1705056:0]          mpool.c:42   UCX  WARN  object 0xb08fe40 was not returned to mpool ucp_requests
[1695247010.922246] [nc10354:1705056:0]          mpool.c:42   UCX  WARN  object 0xb090000 was not returned to mpool ucp_requests
[1695247010.922248] [nc10354:1705056:0]          mpool.c:42   UCX  WARN  object 0xb0901c0 was not returned to mpool ucp_requests
[1695247010.922251] [nc10354:1705056:0]          mpool.c:42   UCX  WARN  object 0xb090380 was not returned to mpool ucp_requests
[1695247010.922253] [nc10354:1705056:0]          mpool.c:42   UCX  WARN  object 0xb090540 was not returned to mpool ucp_requests
[1695247010.922255] [nc10354:1705056:0]          mpool.c:42   UCX  WARN  object 0xb090700 was not returned to mpool ucp_requests
[1695247010.922258] [nc10354:1705056:0]          mpool.c:42   UCX  WARN  object 0xb0908c0 was not returned to mpool ucp_requests
[1695247010.922260] [nc10354:1705056:0]          mpool.c:42   UCX  WARN  object 0xb090a80 was not returned to mpool ucp_requests
[1695247010.922807] [nc10354:1705059:0]          mpool.c:42   UCX  WARN  object 0xbd16400 was not returned to mpool ucp_requests
[1695247010.922825] [nc10354:1705059:0]          mpool.c:42   UCX  WARN  object 0xbd165c0 was not returned to mpool ucp_requests
[1695247010.922830] [nc10354:1705059:0]          mpool.c:42   UCX  WARN  object 0xbd16780 was not returned to mpool ucp_requests
[1695247010.922833] [nc10354:1705059:0]          mpool.c:42   UCX  WARN  object 0xbd16940 was not returned to mpool ucp_requests
[1695247010.922837] [nc10354:1705059:0]          mpool.c:42   UCX  WARN  object 0xbd16b00 was not returned to mpool ucp_requests
[1695247010.922841] [nc10354:1705059:0]          mpool.c:42   UCX  WARN  object 0xbd16cc0 was not returned to mpool ucp_requests
[1695247010.922847] [nc10354:1705059:0]          mpool.c:42   UCX  WARN  object 0xbd16e80 was not returned to mpool ucp_requests
[1695247010.922852] [nc10354:1705059:0]          mpool.c:42   UCX  WARN  object 0xbd17040 was not returned to mpool ucp_requests
[1695247010.922855] [nc10354:1705059:0]          mpool.c:42   UCX  WARN  object 0xbd17200 was not returned to mpool ucp_requests
[1695247010.922859] [nc10354:1705059:0]          mpool.c:42   UCX  WARN  object 0xbd173c0 was not returned to mpool ucp_requests
[1695247010.923018] [nc10354:1705068:0]          mpool.c:42   UCX  WARN  object 0xb796040 was not returned to mpool ucp_requests
[1695247010.923034] [nc10354:1705068:0]          mpool.c:42   UCX  WARN  object 0xb796200 was not returned to mpool ucp_requests
[1695247010.923039] [nc10354:1705068:0]          mpool.c:42   UCX  WARN  object 0xb7963c0 was not returned to mpool ucp_requests
[1695247010.923043] [nc10354:1705068:0]          mpool.c:42   UCX  WARN  object 0xb796580 was not returned to mpool ucp_requests
[1695247010.923047] [nc10354:1705068:0]          mpool.c:42   UCX  WARN  object 0xb796740 was not returned to mpool ucp_requests
[1695247010.923051] [nc10354:1705068:0]          mpool.c:42   UCX  WARN  object 0xb796900 was not returned to mpool ucp_requests
[1695247010.923054] [nc10354:1705068:0]          mpool.c:42   UCX  WARN  object 0xb796ac0 was not returned to mpool ucp_requests
[1695247010.923057] [nc10354:1705068:0]          mpool.c:42   UCX  WARN  object 0xb796c80 was not returned to mpool ucp_requests
[1695247010.923060] [nc10354:1705068:0]          mpool.c:42   UCX  WARN  object 0xb796e40 was not returned to mpool ucp_requests
[1695247010.923062] [nc10354:1705068:0]          mpool.c:42   UCX  WARN  object 0xb797000 was not returned to mpool ucp_requests
[1695247010.923463] [nc10354:1705065:0]          mpool.c:42   UCX  WARN  object 0xbd31940 was not returned to mpool ucp_requests
[1695247010.923478] [nc10354:1705065:0]          mpool.c:42   UCX  WARN  object 0xbd31b00 was not returned to mpool ucp_requests
[1695247010.923485] [nc10354:1705065:0]          mpool.c:42   UCX  WARN  object 0xbd31cc0 was not returned to mpool ucp_requests
[1695247010.923489] [nc10354:1705065:0]          mpool.c:42   UCX  WARN  object 0xbd31e80 was not returned to mpool ucp_requests
[1695247010.923493] [nc10354:1705065:0]          mpool.c:42   UCX  WARN  object 0xbd32040 was not returned to mpool ucp_requests
[1695247010.923497] [nc10354:1705065:0]          mpool.c:42   UCX  WARN  object 0xbd32200 was not returned to mpool ucp_requests
[1695247010.923502] [nc10354:1705065:0]          mpool.c:42   UCX  WARN  object 0xbd323c0 was not returned to mpool ucp_requests
[1695247010.923505] [nc10354:1705065:0]          mpool.c:42   UCX  WARN  object 0xbd32580 was not returned to mpool ucp_requests
[1695247010.923509] [nc10354:1705065:0]          mpool.c:42   UCX  WARN  object 0xbd32740 was not returned to mpool ucp_requests
[1695247010.923514] [nc10354:1705065:0]          mpool.c:42   UCX  WARN  object 0xbd32900 was not returned to mpool ucp_requests
[1695247010.924067] [nc10354:1705054:0]          mpool.c:42   UCX  WARN  object 0xb22a640 was not returned to mpool ucp_requests
[1695247010.924079] [nc10354:1705054:0]          mpool.c:42   UCX  WARN  object 0xb22a800 was not returned to mpool ucp_requests
[1695247010.924082] [nc10354:1705054:0]          mpool.c:42   UCX  WARN  object 0xb22a9c0 was not returned to mpool ucp_requests
[1695247010.924085] [nc10354:1705054:0]          mpool.c:42   UCX  WARN  object 0xb22ad40 was not returned to mpool ucp_requests
[1695247010.924087] [nc10354:1705054:0]          mpool.c:42   UCX  WARN  object 0xb22af00 was not returned to mpool ucp_requests
[1695247010.924089] [nc10354:1705054:0]          mpool.c:42   UCX  WARN  object 0xb22b0c0 was not returned to mpool ucp_requests
[1695247010.923999] [nc10354:1705072:0]          mpool.c:42   UCX  WARN  object 0xb95b9c0 was not returned to mpool ucp_requests
[1695247010.924015] [nc10354:1705072:0]          mpool.c:42   UCX  WARN  object 0xb95bb80 was not returned to mpool ucp_requests
[1695247010.924023] [nc10354:1705072:0]          mpool.c:42   UCX  WARN  object 0xb95bd40 was not returned to mpool ucp_requests
[1695247010.924027] [nc10354:1705072:0]          mpool.c:42   UCX  WARN  object 0xb95bf00 was not returned to mpool ucp_requests
[1695247010.924032] [nc10354:1705072:0]          mpool.c:42   UCX  WARN  object 0xb95c0c0 was not returned to mpool ucp_requests
[1695247010.924035] [nc10354:1705072:0]          mpool.c:42   UCX  WARN  object 0xb95c280 was not returned to mpool ucp_requests
[1695247010.924039] [nc10354:1705072:0]          mpool.c:42   UCX  WARN  object 0xb95c440 was not returned to mpool ucp_requests
[1695247010.924042] [nc10354:1705072:0]          mpool.c:42   UCX  WARN  object 0xb95c600 was not returned to mpool ucp_requests
[1695247010.924046] [nc10354:1705072:0]          mpool.c:42   UCX  WARN  object 0xb95c7c0 was not returned to mpool ucp_requests
[1695247010.924050] [nc10354:1705072:0]          mpool.c:42   UCX  WARN  object 0xb95c980 was not returned to mpool ucp_requests
[1695247010.925592] [nc10354:1705061:0]          mpool.c:42   UCX  WARN  object 0xb119880 was not returned to mpool ucp_requests
[1695247010.925604] [nc10354:1705061:0]          mpool.c:42   UCX  WARN  object 0xb119a40 was not returned to mpool ucp_requests
[1695247010.925607] [nc10354:1705061:0]          mpool.c:42   UCX  WARN  object 0xb119c00 was not returned to mpool ucp_requests
[1695247010.925610] [nc10354:1705061:0]          mpool.c:42   UCX  WARN  object 0xb119dc0 was not returned to mpool ucp_requests
[1695247010.925612] [nc10354:1705061:0]          mpool.c:42   UCX  WARN  object 0xb119f80 was not returned to mpool ucp_requests
[1695247010.925615] [nc10354:1705061:0]          mpool.c:42   UCX  WARN  object 0xb11a140 was not returned to mpool ucp_requests
[1695247010.925617] [nc10354:1705061:0]          mpool.c:42   UCX  WARN  object 0xb11a300 was not returned to mpool ucp_requests
[1695247010.925619] [nc10354:1705061:0]          mpool.c:42   UCX  WARN  object 0xb11a4c0 was not returned to mpool ucp_requests
[1695247010.925622] [nc10354:1705061:0]          mpool.c:42   UCX  WARN  object 0xb11a680 was not returned to mpool ucp_requests
[1695247010.925624] [nc10354:1705061:0]          mpool.c:42   UCX  WARN  object 0xb11a840 was not returned to mpool ucp_requests


           ************************************************************
           *        Program running with 8 parallel MPI-processes     *
           *              working on a common directory               *
           ************************************************************
-------------------------------------------------------------------------------
                                 ORCA SCF
-------------------------------------------------------------------------------

------------
SCF SETTINGS
------------
Hamiltonian:
 Density Functional     Method          .... DFT(GTOs)
 Exchange Functional    Exchange        .... WB97X-D3
 Correlation Functional Correlation     .... WB97X-D3
 Gradients option       PostSCFGGA      .... off
 Hybrid DFT is turned on
   Fraction HF Exchange ScalHFX         ....  0.195728
   Scaling of DF-GGA-X  ScalDFX         ....  0.000000
   Scaling of DF-GGA-C  ScalDFC         ....  1.000000
   Scaling of DF-LDA-C  ScalLDAC        ....  1.000000
   Perturbative correction              ....  0.000000
   Density functional embedding theory  .... OFF
 Long-range corrected/Screened/Range-Separated Hybrid DFT is turned on
   Amount of maximum screened exact exchange              ....  0.804272
   Range separation parameter mu (erf(mu*r12)/r12)        ....  0.250000
 RI-approximation to the Coulomb term is turned on
   Number of AuxJ basis functions       .... 1287
   RIJ-COSX (HFX calculated with COS-X)).... on


General Settings:
 Integral files         IntName         .... Fluoxetine_9
 Hartree-Fock type      HFTyp           .... RHF
 Total Charge           Charge          ....    1
 Multiplicity           Mult            ....    1
 Number of Electrons    NEL             ....  162
 Basis Dimension        Dim             ....  948
 Nuclear Repulsion      ENuc            ....   1814.8706329784 Eh

Convergence Acceleration:
 DIIS                   CNVDIIS         .... on
   Start iteration      DIISMaxIt       ....    12
   Startup error        DIISStart       ....  0.200000
   # of expansion vecs  DIISMaxEq       ....     5
   Bias factor          DIISBfac        ....   1.050
   Max. coefficient     DIISMaxC        ....  10.000
 Trust-Rad. Augm. Hess. CNVTRAH         .... auto
   Auto Start mean grad. ratio tolernc. ....  1.125000
   Auto Start start iteration           ....    20
   Auto Start num. interpolation iter.  ....    10
   Max. Number of Micro iterations      ....    16
   Max. Number of Macro iterations      .... Maxiter - #DIIS iter
   Number of Davidson start vectors     ....     2
   Converg. threshold I  (grad. norm)   ....   1.000e-05
   Converg. threshold II (energy diff.) ....   1.000e-08
   Grad. Scal. Fac. for Micro threshold ....   0.100
   Minimum threshold for Micro iter.    ....   0.010
   NR start threshold (gradient norm)   ....   0.001
   Initial trust radius                 ....   0.400
   Minimum AH scaling param. (alpha)    ....   1.000
   Maximum AH scaling param. (alpha)    .... 1000.000
   Orbital update algorithm             .... Taylor
   White noise on init. David. guess    .... on
   Maximum white noise                  ....   0.010
   Quad. conv. algorithm                .... NR
 SOSCF                  CNVSOSCF        .... on
   Start iteration      SOSCFMaxIt      ....   150
   Startup grad/error   SOSCFStart      ....  0.003300
 Level Shifting         CNVShift        .... on
   Level shift para.    LevelShift      ....    0.2500
   Turn off err/grad.   ShiftErr        ....    0.0010
 Zerner damping         CNVZerner       .... off
 Static damping         CNVDamp         .... on
   Fraction old density DampFac         ....    0.7000
   Max. Damping (<1)    DampMax         ....    0.9800
   Min. Damping (>=0)   DampMin         ....    0.0000
   Turn off err/grad.   DampErr         ....    0.1000
 Fernandez-Rico         CNVRico         .... off

SCF Procedure:
 Maximum # iterations   MaxIter         ....   125
 SCF integral mode      SCFMode         .... Direct
   Integral package                     .... SHARK and LIBINT hybrid scheme
 Reset frequency        DirectResetFreq ....    20
 Integral Threshold     Thresh          ....  2.500e-11 Eh
 Primitive CutOff       TCut            ....  2.500e-12 Eh

Convergence Tolerance:
 Convergence Check Mode ConvCheckMode   .... Total+1el-Energy
 Convergence forced     ConvForced      .... 0
 Energy Change          TolE            ....  1.000e-08 Eh
 1-El. energy change                    ....  1.000e-05 Eh
 Orbital Gradient       TolG            ....  1.000e-05
 Orbital Rotation angle TolX            ....  1.000e-05
 DIIS Error             TolErr          ....  5.000e-07


Diagonalization of the overlap matrix:
Smallest eigenvalue                        ... 6.303e-06
Time for diagonalization                   ...    0.158 sec
Threshold for overlap eigenvalues          ... 1.000e-08
Number of eigenvalues below threshold      ... 0
Time for construction of square roots      ...    0.101 sec
Total time needed                          ...    0.375 sec

Time for model grid setup =    0.285 sec

------------------------------
INITIAL GUESS: MODEL POTENTIAL
------------------------------
Loading Hartree-Fock densities                     ... done
Calculating cut-offs                               ... done
Initializing the effective Hamiltonian             ... done
Setting up the integral package (SHARK)            ... done
Starting the Coulomb interaction                   ... done (   0.6 sec)
Reading the grid                                   ... done
Mapping shells                                     ... done
Starting the XC term evaluation                    ... done (   0.3 sec)
  promolecular density results
     # of electrons  =    162.988311607
     EX              =   -137.403590094
     EC              =     -5.522615058
     EX+EC           =   -142.926205153
Transforming the Hamiltonian                       ... done (   0.1 sec)
Diagonalizing the Hamiltonian                      ... done (   0.2 sec)
Back transforming the eigenvectors                 ... done (   0.0 sec)
Now organizing SCF variables                       ... done
                      ------------------
                      INITIAL GUESS DONE (   1.5 sec)
                      ------------------
-------------------
DFT GRID GENERATION
-------------------

General Integration Accuracy     IntAcc      ... 4.959
Radial Grid Type                 RadialGrid  ... OptM3 with GC (2021)
Angular Grid (max. ang.)         AngularGrid ... 6 (Lebedev-590)
Angular grid pruning method      GridPruning ... 4 (adaptive)
Weight generation scheme         WeightScheme... Becke
Basis function cutoff            BFCut       ... 1.0000e-11
Integration weight cutoff        WCut        ... 1.0000e-14
Angular grids for H and He will be reduced by one unit
Partially contracted basis set               ... off
Rotationally invariant grid construction     ... off

Total number of grid points                  ...   472606
Total number of batches                      ...     7403
Average number of points per batch           ...       63
Average number of grid points per atom       ...    11527
Time for grid setup =    5.624 sec

--------------------
COSX GRID GENERATION
--------------------

GRIDX 1
-------
General Integration Accuracy     IntAcc      ... 4.020
Radial Grid Type                 RadialGrid  ... OptM3 with GC (2021)
Angular Grid (max. ang.)         AngularGrid ... 2 (Lebedev-110)
Angular grid pruning method      GridPruning ... 4 (adaptive)
Weight generation scheme         WeightScheme... Becke
Basis function cutoff            BFCut       ... 1.0000e-11
Integration weight cutoff        WCut        ... 1.0000e-14
Angular grids for H and He will be reduced by one unit
Partially contracted basis set               ... on
Rotationally invariant grid construction     ... off

Total number of grid points                  ...    52561
Total number of batches                      ...      841
Average number of points per batch           ...       62
Average number of grid points per atom       ...     1282
UseSFitting                                  ... on

GRIDX 2
-------
General Integration Accuracy     IntAcc      ... 4.338
Radial Grid Type                 RadialGrid  ... OptM3 with GC (2021)
Angular Grid (max. ang.)         AngularGrid ... 3 (Lebedev-194)
Angular grid pruning method      GridPruning ... 4 (adaptive)
Weight generation scheme         WeightScheme... Becke
Basis function cutoff            BFCut       ... 1.0000e-11
Integration weight cutoff        WCut        ... 1.0000e-14
Angular grids for H and He will be reduced by one unit
Partially contracted basis set               ... on
Rotationally invariant grid construction     ... off

Total number of grid points                  ...   114736
Total number of batches                      ...     1815
Average number of points per batch           ...       63
Average number of grid points per atom       ...     2798
UseSFitting                                  ... on

GRIDX 3
-------
General Integration Accuracy     IntAcc      ... 4.871
Radial Grid Type                 RadialGrid  ... OptM3 with GC (2021)
Angular Grid (max. ang.)         AngularGrid ... 4 (Lebedev-302)
Angular grid pruning method      GridPruning ... 4 (adaptive)
Weight generation scheme         WeightScheme... Becke
Basis function cutoff            BFCut       ... 1.0000e-11
Integration weight cutoff        WCut        ... 1.0000e-14
Angular grids for H and He will be reduced by one unit
Partially contracted basis set               ... on
Rotationally invariant grid construction     ... off

Total number of grid points                  ...   215670
Total number of batches                      ...     3394
Average number of points per batch           ...       63
Average number of grid points per atom       ...     5260
UseSFitting                                  ... on

Time for X-Grid setup             =    3.566 sec

--------------
SCF ITERATIONS
--------------
ITER       Energy         Delta-E        Max-DP      RMS-DP      [F,P]     Damp
               ***  Starting incremental Fock matrix formation  ***
  0  -1088.2390592470   0.000000000000 0.02921999  0.00039596  0.1586541 0.7000
  1  -1088.4066402279  -0.167580980846 0.02793915  0.00033007  0.0866733 0.7000
                               ***Turning on DIIS***
  2  -1088.4934146985  -0.086774470618 0.06608180  0.00075797  0.0448321 0.0000
  3  -1088.6389573382  -0.145542639757 0.01621723  0.00019424  0.0414296 0.0000
  4  -1088.6581654999  -0.019208161709 0.00698653  0.00007713  0.0060837 0.0000
  5  -1088.6586216697  -0.000456169767 0.00224115  0.00002874  0.0042053 0.0000
                      *** Initiating the SOSCF procedure ***
                           *** Shutting down DIIS ***
                      *** Re-Reading the Fockian *** 
                      *** Removing any level shift *** 
ITER      Energy       Delta-E        Grad      Rot      Max-DP    RMS-DP
  6  -1088.65870783  -0.0000861650  0.000539  0.000539  0.001036  0.000015
               *** Restarting incremental Fock matrix formation ***
  7  -1088.65872608  -0.0000182433  0.000444  0.001139  0.001930  0.000015
  8  -1088.65872963  -0.0000035514  0.000095  0.000489  0.000941  0.000009
  9  -1088.65873063  -0.0000009972  0.000035  0.000055  0.000737  0.000005
 10  -1088.65873081  -0.0000001850  0.000013  0.000027  0.000220  0.000002
 11  -1088.65873082  -0.0000000121  0.000008  0.000027  0.000182  0.000002
                  ***Gradient check signals convergence***
              ***Rediagonalizing the Fockian in SOSCF/NRSCF***

               *****************************************************
               *                     SUCCESS                       *
               *           SCF CONVERGED AFTER  12 CYCLES          *
               *****************************************************

Old exchange energy                            =    -44.809928386 Eh
New exchange energy                            =    -44.809930005 Eh
Exchange energy change after final integration =     -0.000001619 Eh
Total energy after final integration           =  -1088.658732441 Eh
Final COS-X integration done in                =    93.591 sec

----------------
TOTAL SCF ENERGY
----------------

Total Energy       :        -1088.65873244 Eh          -29623.91016 eV

Components:
Nuclear Repulsion  :         1814.87063298 Eh           49385.14062 eV
Electronic Energy  :        -2903.52936542 Eh          -79009.05078 eV
One Electron Energy:        -5073.45053142 Eh         -138055.60757 eV
Two Electron Energy:         2169.92116600 Eh           59046.55680 eV
Max COSX asymmetry :            0.00000076 Eh               0.00002 eV

Virial components:
Potential Energy   :        -2172.85429453 Eh          -59126.37128 eV
Kinetic Energy     :         1084.19556209 Eh           29502.46112 eV
Virial Ratio       :            2.00411657


DFT components:
N(Alpha)           :       80.999974486328 electrons
N(Beta)            :       80.999974486328 electrons
N(Total)           :      161.999948972655 electrons
E(XC)              :     -101.243990458906 Eh       
DFET-embed. en.    :        0.000000000000 Eh       

---------------
SCF CONVERGENCE
---------------

  Last Energy change         ...    1.1848e-09  Tolerance :   1.0000e-08
  Last MAX-Density change    ...    2.2204e-15  Tolerance :   1.0000e-07
  Last RMS-Density change    ...    1.2023e-17  Tolerance :   5.0000e-09
  Last Orbital Gradient      ...    2.3667e-06  Tolerance :   1.0000e-05
  Last Orbital Rotation      ...    1.0406e-05  Tolerance :   1.0000e-05

             **** THE GBW FILE WAS UPDATED (Fluoxetine_9.gbw) ****
             **** DENSITY Fluoxetine_9.scfp WAS UPDATED ****
             **** ENERGY FILE WAS UPDATED (Fluoxetine_9.en.tmp) ****
             **** THE GBW FILE WAS UPDATED (Fluoxetine_9.gbw) ****
             **** DENSITY Fluoxetine_9.scfp WAS UPDATED ****
----------------
ORBITAL ENERGIES
----------------

  NO   OCC          E(Eh)            E(eV) 
   0   2.0000     -24.894158      -677.4045 
   1   2.0000     -24.894025      -677.4008 
   2   2.0000     -24.887749      -677.2301 
   3   2.0000     -19.420089      -528.4475 
   4   2.0000     -14.700364      -400.0172 
   5   2.0000     -10.610562      -288.7281 
   6   2.0000     -10.493308      -285.5374 
   7   2.0000     -10.491347      -285.4841 
   8   2.0000     -10.486049      -285.3399 
   9   2.0000     -10.478528      -285.1353 
  10   2.0000     -10.443420      -284.1799 
  11   2.0000     -10.418069      -283.4901 
  12   2.0000     -10.409069      -283.2452 
  13   2.0000     -10.408483      -283.2292 
  14   2.0000     -10.407842      -283.2118 
  15   2.0000     -10.406701      -283.1807 
  16   2.0000     -10.404097      -283.1099 
  17   2.0000     -10.402907      -283.0775 
  18   2.0000     -10.401218      -283.0315 
  19   2.0000     -10.396924      -282.9147 
  20   2.0000     -10.395717      -282.8818 
  21   2.0000     -10.391970      -282.7799 
  22   2.0000      -1.512736       -41.1636 
  23   2.0000      -1.422325       -38.7034 
  24   2.0000      -1.415560       -38.5193 
  25   2.0000      -1.341236       -36.4969 
  26   2.0000      -1.287773       -35.0421 
  27   2.0000      -1.119585       -30.4654 
  28   2.0000      -1.104782       -30.0626 
  29   2.0000      -1.076600       -29.2958 
  30   2.0000      -1.026590       -27.9349 
  31   2.0000      -1.003726       -27.3128 
  32   2.0000      -0.997012       -27.1301 
  33   2.0000      -0.986450       -26.8427 
  34   2.0000      -0.983121       -26.7521 
  35   2.0000      -0.952587       -25.9212 
  36   2.0000      -0.913748       -24.8644 
  37   2.0000      -0.887741       -24.1567 
  38   2.0000      -0.870996       -23.7010 
  39   2.0000      -0.858027       -23.3481 
  40   2.0000      -0.845835       -23.0163 
  41   2.0000      -0.831582       -22.6285 
  42   2.0000      -0.814295       -22.1581 
  43   2.0000      -0.790131       -21.5006 
  44   2.0000      -0.780893       -21.2492 
  45   2.0000      -0.778307       -21.1788 
  46   2.0000      -0.776064       -21.1178 
  47   2.0000      -0.770605       -20.9692 
  48   2.0000      -0.757281       -20.6067 
  49   2.0000      -0.744942       -20.2709 
  50   2.0000      -0.728869       -19.8335 
  51   2.0000      -0.706098       -19.2139 
  52   2.0000      -0.693349       -18.8670 
  53   2.0000      -0.683212       -18.5911 
  54   2.0000      -0.678394       -18.4600 
  55   2.0000      -0.672856       -18.3094 
  56   2.0000      -0.670662       -18.2497 
  57   2.0000      -0.667217       -18.1559 
  58   2.0000      -0.654524       -17.8105 
  59   2.0000      -0.653699       -17.7881 
  60   2.0000      -0.652228       -17.7480 
  61   2.0000      -0.646020       -17.5791 
  62   2.0000      -0.645361       -17.5612 
  63   2.0000      -0.640843       -17.4382 
  64   2.0000      -0.632390       -17.2082 
  65   2.0000      -0.619801       -16.8656 
  66   2.0000      -0.619118       -16.8471 
  67   2.0000      -0.607506       -16.5311 
  68   2.0000      -0.606222       -16.4961 
  69   2.0000      -0.596764       -16.2388 
  70   2.0000      -0.589180       -16.0324 
  71   2.0000      -0.586303       -15.9541 
  72   2.0000      -0.564689       -15.3660 
  73   2.0000      -0.560816       -15.2606 
  74   2.0000      -0.559986       -15.2380 
  75   2.0000      -0.553829       -15.0705 
  76   2.0000      -0.546370       -14.8675 
  77   2.0000      -0.470522       -12.8036 
  78   2.0000      -0.464006       -12.6263 
  79   2.0000      -0.457446       -12.4477 
  80   2.0000      -0.447506       -12.1773 
  81   0.0000      -0.068626        -1.8674 
  82   0.0000      -0.062232        -1.6934 
  83   0.0000      -0.060855        -1.6559 
  84   0.0000      -0.057584        -1.5669 
  85   0.0000      -0.053693        -1.4611 
  86   0.0000      -0.014625        -0.3980 
  87   0.0000      -0.004986        -0.1357 
  88   0.0000       0.005472         0.1489 
  89   0.0000       0.014122         0.3843 
  90   0.0000       0.024126         0.6565 
  91   0.0000       0.030073         0.8183 
  92   0.0000       0.032459         0.8833 
  93   0.0000       0.035326         0.9613 
  94   0.0000       0.043890         1.1943 
  95   0.0000       0.050555         1.3757 
  96   0.0000       0.057230         1.5573 
  97   0.0000       0.065717         1.7883 
  98   0.0000       0.072800         1.9810 
  99   0.0000       0.076189         2.0732 
 100   0.0000       0.078764         2.1433 
 101   0.0000       0.088677         2.4130 
 102   0.0000       0.089753         2.4423 
 103   0.0000       0.097859         2.6629 
 104   0.0000       0.102111         2.7786 
 105   0.0000       0.107414         2.9229 
 106   0.0000       0.109988         2.9929 
 107   0.0000       0.114318         3.1107 
 108   0.0000       0.118749         3.2313 
 109   0.0000       0.124535         3.3888 
 110   0.0000       0.132187         3.5970 
 111   0.0000       0.134410         3.6575 
 112   0.0000       0.142832         3.8866 
 113   0.0000       0.144516         3.9325 
 114   0.0000       0.151473         4.1218 
 115   0.0000       0.153618         4.1802 
 116   0.0000       0.158907         4.3241 
 117   0.0000       0.162446         4.4204 
 118   0.0000       0.165503         4.5036 
 119   0.0000       0.166246         4.5238 
 120   0.0000       0.179616         4.8876 
 121   0.0000       0.188736         5.1358 
 122   0.0000       0.194754         5.2995 
 123   0.0000       0.196018         5.3339 
 124   0.0000       0.199218         5.4210 
 125   0.0000       0.202333         5.5058 
 126   0.0000       0.204600         5.5675 
 127   0.0000       0.207147         5.6368 
 128   0.0000       0.215146         5.8544 
 129   0.0000       0.216222         5.8837 
 130   0.0000       0.224872         6.1191 
 131   0.0000       0.231956         6.3118 
 132   0.0000       0.233755         6.3608 
 133   0.0000       0.240351         6.5403 
 134   0.0000       0.243192         6.6176 
 135   0.0000       0.247077         6.7233 
 136   0.0000       0.253719         6.9040 
 137   0.0000       0.258222         7.0266 
 138   0.0000       0.262382         7.1398 
 139   0.0000       0.267888         7.2896 
 140   0.0000       0.271955         7.4003 
 141   0.0000       0.275213         7.4889 
 142   0.0000       0.283342         7.7101 
 143   0.0000       0.287048         7.8110 
 144   0.0000       0.290800         7.9131 
 145   0.0000       0.295963         8.0536 
 146   0.0000       0.297617         8.0986 
 147   0.0000       0.305104         8.3023 
 148   0.0000       0.312877         8.5138 
 149   0.0000       0.316214         8.6046 
 150   0.0000       0.320265         8.7149 
 151   0.0000       0.322526         8.7764 
 152   0.0000       0.330873         9.0035 
 153   0.0000       0.333705         9.0806 
 154   0.0000       0.336185         9.1480 
 155   0.0000       0.337637         9.1876 
 156   0.0000       0.343395         9.3443 
 157   0.0000       0.348510         9.4834 
 158   0.0000       0.351758         9.5718 
 159   0.0000       0.354372         9.6430 
 160   0.0000       0.356252         9.6941 
 161   0.0000       0.362647         9.8681 
 162   0.0000       0.367934        10.0120 
 163   0.0000       0.370560        10.0835 
 164   0.0000       0.376386        10.2420 
 165   0.0000       0.379916        10.3380 
 166   0.0000       0.387404        10.5418 
 167   0.0000       0.388625        10.5750 
 168   0.0000       0.390823        10.6348 
 169   0.0000       0.396456        10.7881 
[...]
 11:     65.65   0.000385    1.94  0.001828  ( 0.026496 -0.025116  0.022251)
 12:     86.82   0.000075    0.38  0.000270  (-0.011114 -0.002972 -0.011751)
 13:     99.65   0.001713    8.66  0.005364  (-0.066066  0.005367 -0.031147)
 14:    120.10   0.000257    1.30  0.000667  (-0.019671  0.015802  0.005512)
 15:    159.31   0.000204    1.03  0.000400  (-0.011969  0.011578  0.011095)
 16:    182.28   0.001326    6.70  0.002270  ( 0.004710 -0.047088  0.005565)
 17:    196.69   0.001236    6.24  0.001960  (-0.027726  0.032220 -0.012387)
 18:    224.81   0.000257    1.30  0.000357  ( 0.009602  0.008284 -0.013999)
 19:    239.23   0.001953    9.87  0.002548  (-0.005731  0.049490 -0.008111)
 20:    269.96   0.001238    6.26  0.001431  (-0.008902  0.036670 -0.002699)
 21:    279.11   0.000082    0.41  0.000092  ( 0.007557 -0.002799  0.005181)
 22:    310.17   0.000868    4.39  0.000873  ( 0.014874 -0.024672 -0.006598)
 23:    348.95   0.001346    6.80  0.001204  ( 0.015715 -0.030917 -0.001103)
 24:    377.99   0.000534    2.70  0.000441  ( 0.010179  0.018072 -0.003322)
 25:    393.64   0.000263    1.33  0.000209  ( 0.008007 -0.008176  0.008818)
 26:    404.91   0.000962    4.86  0.000742  ( 0.016362 -0.000647  0.021763)
 27:    418.61   0.000027    0.14  0.000020  ( 0.001936  0.002876 -0.002821)
 28:    425.37   0.000096    0.48  0.000070  (-0.002952  0.000172 -0.007832)
 29:    427.83   0.000042    0.21  0.000030  ( 0.004838 -0.002649 -0.000177)
 30:    487.96   0.000720    3.64  0.000461  ( 0.019694 -0.002074  0.008271)
 31:    508.69   0.000858    4.33  0.000526  (-0.013835  0.018257  0.001216)
 32:    524.20   0.001121    5.67  0.000668  ( 0.015292 -0.020517 -0.003571)
 33:    572.92   0.000749    3.79  0.000408  (-0.016126  0.011363 -0.004344)
 34:    585.67   0.000091    0.46  0.000048  ( 0.006903 -0.000204  0.000826)
 35:    610.07   0.002749   13.89  0.001406  (-0.016215  0.033030  0.007241)
 36:    633.15   0.002365   11.95  0.001166  (-0.030056 -0.016034 -0.002319)
 37:    638.29   0.000263    1.33  0.000129  (-0.007483 -0.005809 -0.006239)
 38:    655.04   0.001221    6.17  0.000582  ( 0.022950  0.007374 -0.000659)
 39:    685.47   0.003502   17.70  0.001594  (-0.039009 -0.006700 -0.005244)
 40:    734.60   0.007104   35.90  0.003018  ( 0.027943 -0.047209  0.002909)
 41:    765.97   0.000623    3.15  0.000254  ( 0.010025 -0.012373  0.000593)
 42:    772.30   0.000188    0.95  0.000076  ( 0.006271 -0.002696  0.005419)
 43:    781.16   0.009999   50.53  0.003994  ( 0.019168 -0.060176  0.002405)
 44:    817.07   0.002613   13.20  0.000998  (-0.024255 -0.013896 -0.014714)
 45:    831.46   0.002246   11.35  0.000843  (-0.001242 -0.026934 -0.010763)
 46:    844.97   0.000918    4.64  0.000339  ( 0.017077 -0.006820 -0.000872)
 47:    853.41   0.000537    2.71  0.000196  ( 0.010817  0.008241  0.003394)
 48:    875.63   0.010089   50.99  0.003596  ( 0.002145  0.059052  0.010191)
 49:    878.87   0.005156   26.06  0.001831  ( 0.028095 -0.032056 -0.003724)
 50:    887.66   0.000051    0.26  0.000018  ( 0.003426  0.000378 -0.002458)
 51:    920.62   0.000407    2.06  0.000138  ( 0.007815  0.006506  0.005885)
 52:    963.22   0.002971   15.02  0.000963  ( 0.024134 -0.018241  0.006889)
 53:    969.14   0.000331    1.67  0.000106  ( 0.008197  0.006239 -0.000591)
 54:   1001.85   0.000788    3.98  0.000245  ( 0.003247  0.014427  0.005159)
 55:   1020.00   0.000129    0.65  0.000040  (-0.006093 -0.000713  0.001367)
 56:   1026.66   0.000943    4.77  0.000287  (-0.012568 -0.011271  0.001338)
 57:   1029.12   0.000990    5.00  0.000300  (-0.013872 -0.010349 -0.000733)
 58:   1032.23   0.000198    1.00  0.000060  ( 0.007029  0.002171 -0.002411)
 59:   1038.11   0.002972   15.02  0.000893  ( 0.029433  0.003126  0.004147)
 60:   1040.50   0.006430   32.50  0.001929  (-0.038352 -0.019958  0.007709)
 61:   1053.72   0.000020    0.10  0.000006  (-0.002355 -0.000320 -0.000646)
 62:   1068.65   0.005157   26.06  0.001506  ( 0.032439  0.015916 -0.014155)
 63:   1074.79   0.008700   43.97  0.002526  (-0.031218 -0.020034  0.033913)
 64:   1088.97   0.011937   60.32  0.003421  ( 0.054508  0.015599 -0.014362)
 65:   1109.26   0.018541   93.70  0.005216  (-0.065415 -0.023654 -0.019426)
 66:   1128.44   0.000076    0.38  0.000021  ( 0.001756  0.002120  0.003666)
 67:   1145.02   0.007601   38.41  0.002072  (-0.009634  0.008555 -0.043654)
 68:   1156.40   0.001423    7.19  0.000384  (-0.011715 -0.002846  0.015450)
 69:   1182.81   0.002794   14.12  0.000737  (-0.025357 -0.007977 -0.005517)
 70:   1184.80   0.049909  252.22  0.013146  (-0.026317  0.109278  0.022609)
 71:   1191.56   0.000259    1.31  0.000068  ( 0.008106  0.000620 -0.001349)
 72:   1210.33   0.012542   63.38  0.003234  (-0.051303 -0.004124  0.024181)
 73:   1218.09   0.015287   77.25  0.003916  ( 0.015105  0.020363 -0.057214)
 74:   1219.55   0.017491   88.39  0.004476  (-0.008513  0.012138 -0.065238)
 75:   1239.82   0.006390   32.29  0.001608  ( 0.039439  0.007167  0.001220)
 76:   1272.49   0.049345  249.37  0.012101  (-0.109035 -0.012102 -0.008142)
 77:   1288.12   0.021224  107.26  0.005142  (-0.068657 -0.020683  0.000312)
 78:   1307.51   0.002095   10.59  0.000500  (-0.018432  0.005679  0.011315)
 79:   1326.48   0.002531   12.79  0.000595  ( 0.013053  0.007159  0.019332)
 80:   1339.57   0.008911   45.03  0.002076  ( 0.043349  0.006726 -0.012310)
 81:   1347.55   0.023662  119.58  0.005480  (-0.071556 -0.011505 -0.015065)
 82:   1348.84   0.003309   16.72  0.000766  (-0.027088  0.003702 -0.004263)
 83:   1357.73   0.050721  256.32  0.011658  ( 0.105301  0.023858  0.000401)
 84:   1366.75   0.001004    5.07  0.000229  ( 0.012316  0.003729  0.007975)
 85:   1383.77   0.001538    7.77  0.000347  (-0.001213 -0.018475 -0.002003)
 86:   1400.78   0.006248   31.57  0.001392  (-0.034560 -0.001656 -0.013955)
 87:   1419.77   0.005214   26.35  0.001146  (-0.024900 -0.013038  0.018866)
 88:   1425.95   0.003052   15.42  0.000668  ( 0.000846 -0.025743 -0.002099)
 89:   1465.55   0.007940   40.13  0.001691  (-0.014919  0.028578 -0.025523)
 90:   1472.82   0.002090   10.56  0.000443  ( 0.005053 -0.003008  0.020206)
 91:   1480.17   0.003463   17.50  0.000730  (-0.016112  0.016963 -0.013523)
 92:   1485.02   0.003033   15.33  0.000637  ( 0.003833  0.006117  0.024191)
 93:   1504.17   0.002412   12.19  0.000500  ( 0.012350 -0.001493 -0.018593)
 94:   1505.67   0.006945   35.10  0.001439  (-0.001223  0.037564 -0.005186)
 95:   1510.11   0.004447   22.47  0.000919  (-0.010875  0.010893 -0.026117)
 96:   1513.61   0.001850    9.35  0.000381  (-0.019069  0.002308  0.003518)
 97:   1553.67   0.002267   11.46  0.000455  (-0.017234 -0.010243 -0.007308)
 98:   1573.56   0.016017   80.94  0.003176  (-0.054474 -0.014048  0.003420)
 99:   1669.01   0.001586    8.01  0.000296  (-0.006981  0.002141 -0.015594)
100:   1673.69   0.008754   44.24  0.001632  ( 0.035603 -0.003722  0.018731)
101:   1684.36   0.015780   79.75  0.002924  (-0.052608  0.007577  0.009928)
102:   1689.96   0.000584    2.95  0.000108  ( 0.006899  0.007640 -0.001359)
103:   1702.31   0.019934  100.74  0.003654  ( 0.058925  0.012953 -0.003799)
104:   3082.80   0.001592    8.04  0.000161  (-0.008674 -0.008630 -0.003376)
105:   3096.98   0.000364    1.84  0.000037  ( 0.002991 -0.004419  0.002863)
106:   3101.85   0.001032    5.22  0.000104  (-0.003895  0.006084 -0.007186)
107:   3107.52   0.001508    7.62  0.000151  ( 0.007649 -0.009625  0.000569)
108:   3141.27   0.000821    4.15  0.000082  (-0.008340 -0.003453 -0.000317)
109:   3166.71   0.000465    2.35  0.000046  ( 0.000366 -0.006509 -0.001820)
110:   3187.13   0.000900    4.55  0.000088  ( 0.004634  0.003315  0.007458)
111:   3198.26   0.000214    1.08  0.000021  ( 0.002620 -0.003728  0.000284)
112:   3200.22   0.000048    0.24  0.000005  (-0.001821  0.001143  0.000096)
113:   3205.39   0.001142    5.77  0.000111  ( 0.009791 -0.001336  0.003674)
114:   3207.29   0.000113    0.57  0.000011  ( 0.002102  0.002523  0.000445)
115:   3217.47   0.000286    1.45  0.000028  (-0.002376 -0.002824 -0.003761)
116:   3224.70   0.001103    5.58  0.000107  ( 0.004435  0.003683 -0.008575)
117:   3226.26   0.000267    1.35  0.000026  (-0.004211 -0.001951  0.002065)
118:   3233.08   0.000163    0.83  0.000016  (-0.003963 -0.000260  0.000022)
119:   3233.19   0.000369    1.87  0.000036  (-0.004450 -0.002575 -0.003036)
120:   3241.36   0.000922    4.66  0.000089  ( 0.009099  0.002420  0.000387)
121:   3294.72   0.071752  362.60  0.006796  ( 0.055422 -0.060502  0.007995)
122:   3510.42   0.009901   50.03  0.000880  ( 0.014364  0.025636  0.004072)

* The epsilon (eps) is given for a Dirac delta lineshape.
** The dipole moment derivative (T) already includes vibrational overlap.

The first frequency considered to be a vibration is 6
The total number of vibrations considered is 117


--------------------------
THERMOCHEMISTRY AT 298.15K
--------------------------

Temperature         ... 298.15 K
Pressure            ... 1.00 atm
Total Mass          ... 310.34 AMU

Throughout the following assumptions are being made:
  (1) The electronic state is orbitally nondegenerate
  (2) There are no thermally accessible electronically excited states
  (3) Hindered rotations indicated by low frequency modes are not
      treated as such but are treated as vibrations and this may
      cause some error
  (4) All equations used are the standard statistical mechanics
      equations for an ideal gas
  (5) All vibrations are strictly harmonic

freq.       4.15  E(vib)   ...       0.59 
freq.      16.89  E(vib)   ...       0.57 
freq.      29.61  E(vib)   ...       0.55 
freq.      40.97  E(vib)   ...       0.54 
freq.      47.38  E(vib)   ...       0.53 
freq.      65.65  E(vib)   ...       0.50 
freq.      86.82  E(vib)   ...       0.48 
freq.      99.65  E(vib)   ...       0.46 
freq.     120.10  E(vib)   ...       0.44 
freq.     159.31  E(vib)   ...       0.39 
freq.     182.28  E(vib)   ...       0.37 
freq.     196.69  E(vib)   ...       0.36 
freq.     224.81  E(vib)   ...       0.33 
freq.     239.23  E(vib)   ...       0.31 
freq.     269.96  E(vib)   ...       0.29 
freq.     279.11  E(vib)   ...       0.28 
freq.     310.17  E(vib)   ...       0.26 
freq.     348.95  E(vib)   ...       0.23 
freq.     377.99  E(vib)   ...       0.21 
freq.     393.64  E(vib)   ...       0.20 
freq.     404.91  E(vib)   ...       0.19 
freq.     418.61  E(vib)   ...       0.18 
freq.     425.37  E(vib)   ...       0.18 
freq.     427.83  E(vib)   ...       0.18 
freq.     487.96  E(vib)   ...       0.15 
freq.     508.69  E(vib)   ...       0.14 
freq.     524.20  E(vib)   ...       0.13 
freq.     572.92  E(vib)   ...       0.11 
freq.     585.67  E(vib)   ...       0.11 
freq.     610.07  E(vib)   ...       0.10 
freq.     633.15  E(vib)   ...       0.09 
freq.     638.29  E(vib)   ...       0.09 
freq.     655.04  E(vib)   ...       0.08 
freq.     685.47  E(vib)   ...       0.07 
freq.     734.60  E(vib)   ...       0.06 
freq.     765.97  E(vib)   ...       0.06 
freq.     772.30  E(vib)   ...       0.05 
freq.     781.16  E(vib)   ...       0.05 
freq.     817.07  E(vib)   ...       0.05 
freq.     831.46  E(vib)   ...       0.04 
freq.     844.97  E(vib)   ...       0.04 
freq.     853.41  E(vib)   ...       0.04 
freq.     875.63  E(vib)   ...       0.04 
freq.     878.87  E(vib)   ...       0.04 
freq.     887.66  E(vib)   ...       0.04 
freq.     920.62  E(vib)   ...       0.03 
freq.     963.22  E(vib)   ...       0.03 
freq.     969.14  E(vib)   ...       0.03 
freq.    1001.85  E(vib)   ...       0.02 
freq.    1020.00  E(vib)   ...       0.02 
freq.    1026.66  E(vib)   ...       0.02 
freq.    1029.12  E(vib)   ...       0.02 
freq.    1032.23  E(vib)   ...       0.02 
freq.    1038.11  E(vib)   ...       0.02 
freq.    1040.50  E(vib)   ...       0.02 
freq.    1053.72  E(vib)   ...       0.02 
freq.    1068.65  E(vib)   ...       0.02 
freq.    1074.79  E(vib)   ...       0.02 
freq.    1088.97  E(vib)   ...       0.02 
freq.    1109.26  E(vib)   ...       0.02 
freq.    1128.44  E(vib)   ...       0.01 
freq.    1145.02  E(vib)   ...       0.01 
freq.    1156.40  E(vib)   ...       0.01 
freq.    1182.81  E(vib)   ...       0.01 
freq.    1184.80  E(vib)   ...       0.01 
freq.    1191.56  E(vib)   ...       0.01 
freq.    1210.33  E(vib)   ...       0.01 
freq.    1218.09  E(vib)   ...       0.01 
freq.    1219.55  E(vib)   ...       0.01 
freq.    1239.82  E(vib)   ...       0.01 
freq.    1272.49  E(vib)   ...       0.01 
freq.    1288.12  E(vib)   ...       0.01 
freq.    1307.51  E(vib)   ...       0.01 
freq.    1326.48  E(vib)   ...       0.01 
freq.    1339.57  E(vib)   ...       0.01 
freq.    1347.55  E(vib)   ...       0.01 
freq.    1348.84  E(vib)   ...       0.01 
freq.    1357.73  E(vib)   ...       0.01 
freq.    1366.75  E(vib)   ...       0.01 
freq.    1383.77  E(vib)   ...       0.00 
freq.    1400.78  E(vib)   ...       0.00 
freq.    1419.77  E(vib)   ...       0.00 
freq.    1425.95  E(vib)   ...       0.00 
freq.    1465.55  E(vib)   ...       0.00 
freq.    1472.82  E(vib)   ...       0.00 
freq.    1480.17  E(vib)   ...       0.00 
freq.    1485.02  E(vib)   ...       0.00 
freq.    1504.17  E(vib)   ...       0.00 
freq.    1505.67  E(vib)   ...       0.00 
freq.    1510.11  E(vib)   ...       0.00 
freq.    1513.61  E(vib)   ...       0.00 
freq.    1553.67  E(vib)   ...       0.00 
freq.    1573.56  E(vib)   ...       0.00 
freq.    1669.01  E(vib)   ...       0.00 
freq.    1673.69  E(vib)   ...       0.00 
freq.    1684.36  E(vib)   ...       0.00 
freq.    1689.96  E(vib)   ...       0.00 
freq.    1702.31  E(vib)   ...       0.00 
freq.    3082.80  E(vib)   ...       0.00 
freq.    3096.98  E(vib)   ...       0.00 
freq.    3101.85  E(vib)   ...       0.00 
freq.    3107.52  E(vib)   ...       0.00 
freq.    3141.27  E(vib)   ...       0.00 
freq.    3166.71  E(vib)   ...       0.00 
freq.    3187.13  E(vib)   ...       0.00 
freq.    3198.26  E(vib)   ...       0.00 
freq.    3200.22  E(vib)   ...       0.00 
freq.    3205.39  E(vib)   ...       0.00 
freq.    3207.29  E(vib)   ...       0.00 
freq.    3217.47  E(vib)   ...       0.00 
freq.    3224.70  E(vib)   ...       0.00 
freq.    3226.26  E(vib)   ...       0.00 
freq.    3233.08  E(vib)   ...       0.00 
freq.    3233.19  E(vib)   ...       0.00 
freq.    3241.36  E(vib)   ...       0.00 
freq.    3294.72  E(vib)   ...       0.00 
freq.    3510.42  E(vib)   ...       0.00 

------------
INNER ENERGY
------------

The inner energy is: U= E(el) + E(ZPE) + E(vib) + E(rot) + E(trans)
    E(el)   - is the total energy from the electronic structure calculation
              = E(kin-el) + E(nuc-el) + E(el-el) + E(nuc-nuc)
    E(ZPE)  - the the zero temperature vibrational energy from the frequency calculation
    E(vib)  - the the finite temperature correction to E(ZPE) due to population
              of excited vibrational states
    E(rot)  - is the rotational thermal energy
    E(trans)- is the translational thermal energy

Summary of contributions to the inner energy U:
Electronic energy                ...  -1088.68193709 Eh
Zero point energy                ...      0.34029889 Eh     213.54 kcal/mol
Thermal vibrational correction   ...      0.01705964 Eh      10.71 kcal/mol
Thermal rotational correction    ...      0.00141627 Eh       0.89 kcal/mol
Thermal translational correction ...      0.00141627 Eh       0.89 kcal/mol
-----------------------------------------------------------------------
Total thermal energy                  -1088.32174601 Eh


Summary of corrections to the electronic energy:
(perhaps to be used in another calculation)
Total thermal correction                  0.01989219 Eh      12.48 kcal/mol
Non-thermal (ZPE) correction              0.34029889 Eh     213.54 kcal/mol
-----------------------------------------------------------------------
Total correction                          0.36019108 Eh     226.02 kcal/mol


--------
ENTHALPY
--------

The enthalpy is H = U + kB*T
                kB is Boltzmann's constant
Total free energy                 ...  -1088.32174601 Eh 
Thermal Enthalpy correction       ...      0.00094421 Eh       0.59 kcal/mol
-----------------------------------------------------------------------
Total Enthalpy                    ...  -1088.32080180 Eh


Note: Only C1 symmetry has been detected, increase convergence thresholds 
      if your molecule has a higher symmetry. Symmetry factor of 1.0 is   
      used for the rotational entropy correction. 
 

Note: Rotational entropy computed according to Herzberg 
Infrared and Raman Spectra, Chapter V,1, Van Nostrand Reinhold, 1945 
Point Group:  C1, Symmetry Number:   1  
Rotational constants in cm-1:     0.021237     0.003834     0.003665 

Vibrational entropy computed according to the QRRHO of S. Grimme
Chem.Eur.J. 2012 18 9955


-------
ENTROPY
-------

The entropy contributions are T*S = T*(S(el)+S(vib)+S(rot)+S(trans))
     S(el)   - electronic entropy
     S(vib)  - vibrational entropy
     S(rot)  - rotational entropy
     S(trans)- translational entropy
The entropies will be listed as multiplied by the temperature to get
units of energy

Electronic entropy                ...      0.00000000 Eh      0.00 kcal/mol
Vibrational entropy               ...      0.03141151 Eh     19.71 kcal/mol
Rotational entropy                ...      0.01660392 Eh     10.42 kcal/mol
Translational entropy             ...      0.02047516 Eh     12.85 kcal/mol
-----------------------------------------------------------------------
Final entropy term                ...      0.06849059 Eh     42.98 kcal/mol

In case the symmetry of your molecule has not been determined correctly
or in case you have a reason to use a different symmetry number we print 
out the resulting rotational entropy values for sn=1,12 :
 --------------------------------------------------------
|  sn= 1 | S(rot)=       0.01660392 Eh     10.42 kcal/mol|
|  sn= 2 | S(rot)=       0.01594946 Eh     10.01 kcal/mol|
|  sn= 3 | S(rot)=       0.01556663 Eh      9.77 kcal/mol|
|  sn= 4 | S(rot)=       0.01529501 Eh      9.60 kcal/mol|
|  sn= 5 | S(rot)=       0.01508432 Eh      9.47 kcal/mol|
|  sn= 6 | S(rot)=       0.01491218 Eh      9.36 kcal/mol|
|  sn= 7 | S(rot)=       0.01476663 Eh      9.27 kcal/mol|
|  sn= 8 | S(rot)=       0.01464055 Eh      9.19 kcal/mol|
|  sn= 9 | S(rot)=       0.01452934 Eh      9.12 kcal/mol|
|  sn=10 | S(rot)=       0.01442986 Eh      9.05 kcal/mol|
|  sn=11 | S(rot)=       0.01433987 Eh      9.00 kcal/mol|
|  sn=12 | S(rot)=       0.01425772 Eh      8.95 kcal/mol|
 --------------------------------------------------------


-------------------
GIBBS FREE ENERGY
-------------------

The Gibbs free energy is G = H - T*S

Total enthalpy                    ...  -1088.32080180 Eh 
Total entropy correction          ...     -0.06849059 Eh    -42.98 kcal/mol
-----------------------------------------------------------------------
Final Gibbs free energy         ...  -1088.38929239 Eh

For completeness - the Gibbs free energy minus the electronic energy
G-E(el)                           ...      0.29264470 Eh    183.64 kcal/mol


Timings for individual modules:

Sum of individual times         ...    15776.455 sec (= 262.941 min)
GTO integral calculation        ...       25.954 sec (=   0.433 min)   0.2 %
SCF iterations                  ...     7484.809 sec (= 124.747 min)  47.4 %
SCF Gradient evaluation         ...     1934.236 sec (=  32.237 min)  12.3 %
Geometry relaxation             ...        1.928 sec (=   0.032 min)   0.0 %
Analytical frequency calculation...     4909.678 sec (=  81.828 min)  31.1 %
CHELPG charge generation        ...     1419.849 sec (=  23.664 min)   9.0 %
                             ****ORCA TERMINATED NORMALLY****
TOTAL RUN TIME: 0 days 4 hours 23 minutes 11 seconds 371 msec
