
Lmod is automatically replacing "intel/2020.1.217" with "gcc/10.3.0".


Due to MODULEPATH changes, the following have been reloaded:
  1) blis/0.8.1     2) flexiblas/3.0.4

The following have been reloaded with a version change:
  1) gcccore/.9.3.0 => gcccore/.10.3.0        3) openmpi/4.0.3 => openmpi/4.1.1
  2) libfabric/1.10.1 => libfabric/1.12.1     4) ucx/1.8.0 => ucx/1.9.0

To execute ORCA, run: 
   ${EBROOTORCA}/orca orca.inp > orca.out

                                 *****************
                                 * O   R   C   A *
                                 *****************

                                            #,                                       
                                            ###                                      
                                            ####                                     
                                            #####                                    
                                            ######                                   
                                           ########,                                 
                                     ,,################,,,,,                         
                               ,,#################################,,                 
                          ,,##########################################,,             
                       ,#########################################, ''#####,          
                    ,#############################################,,   '####,        
                  ,##################################################,,,,####,       
                ,###########''''           ''''###############################       
              ,#####''   ,,,,##########,,,,          '''####'''          '####       
            ,##' ,,,,###########################,,,                        '##       
           ' ,,###''''                  '''############,,,                           
         ,,##''                                '''############,,,,        ,,,,,,###''
      ,#''                                            '''#######################'''  
     '                                                          ''''####''''         
             ,#######,   #######,   ,#######,      ##                                
            ,#'     '#,  ##    ##  ,#'     '#,    #''#        ######   ,####,        
            ##       ##  ##   ,#'  ##            #'  '#       #        #'  '#        
            ##       ##  #######   ##           ,######,      #####,   #    #        
            '#,     ,#'  ##    ##  '#,     ,#' ,#      #,         ##   #,  ,#        
             '#######'   ##     ##  '#######'  #'      '#     #####' # '####'        



                  #######################################################
                  #                        -***-                        #
                  #          Department of theory and spectroscopy      #
                  #    Directorship and core code : Frank Neese         #
                  #        Max Planck Institute fuer Kohlenforschung    #
                  #                Kaiser Wilhelm Platz 1               #
                  #                 D-45470 Muelheim/Ruhr               #
                  #                      Germany                        #
                  #                                                     #
                  #                  All rights reserved                #
                  #                        -***-                        #
                  #######################################################


                         Program Version 5.0.3 -  RELEASE  -


 With contributions from (in alphabetic order):
   Daniel Aravena         : Magnetic Suceptibility
   Michael Atanasov       : Ab Initio Ligand Field Theory (pilot matlab implementation)
   Alexander A. Auer      : GIAO ZORA, VPT2 properties, NMR spectrum
   Ute Becker             : Parallelization
   Giovanni Bistoni       : ED, misc. LED, open-shell LED, HFLD
   Martin Brehm           : Molecular dynamics
   Dmytro Bykov           : SCF Hessian
   Vijay G. Chilkuri      : MRCI spin determinant printing, contributions to CSF-ICE
   Dipayan Datta          : RHF DLPNO-CCSD density
   Achintya Kumar Dutta   : EOM-CC, STEOM-CC
   Dmitry Ganyushin       : Spin-Orbit,Spin-Spin,Magnetic field MRCI
   Miquel Garcia          : C-PCM and meta-GGA Hessian, CC/C-PCM, Gaussian charge scheme
   Yang Guo               : DLPNO-NEVPT2, F12-NEVPT2, CIM, IAO-localization
   Andreas Hansen         : Spin unrestricted coupled pair/coupled cluster methods
   Benjamin Helmich-Paris : MC-RPA, TRAH-SCF, COSX integrals
   Lee Huntington         : MR-EOM, pCC
   Robert Izsak           : Overlap fitted RIJCOSX, COSX-SCS-MP3, EOM
   Marcus Kettner         : VPT2
   Christian Kollmar      : KDIIS, OOCD, Brueckner-CCSD(T), CCSD density, CASPT2, CASPT2-K
   Simone Kossmann        : Meta GGA functionals, TD-DFT gradient, OOMP2, MP2 Hessian
   Martin Krupicka        : Initial AUTO-CI
   Lucas Lang             : DCDCAS
   Marvin Lechner         : AUTO-CI (C++ implementation), FIC-MRCC
   Dagmar Lenk            : GEPOL surface, SMD
   Dimitrios Liakos       : Extrapolation schemes; Compound Job, initial MDCI parallelization
   Dimitrios Manganas     : Further ROCIS development; embedding schemes
   Dimitrios Pantazis     : SARC Basis sets
   Anastasios Papadopoulos: AUTO-CI, single reference methods and gradients
   Taras Petrenko         : DFT Hessian,TD-DFT gradient, ASA, ECA, R-Raman, ABS, FL, XAS/XES, NRVS
   Peter Pinski           : DLPNO-MP2, DLPNO-MP2 Gradient
   Christoph Reimann      : Effective Core Potentials
   Marius Retegan         : Local ZFS, SOC
   Christoph Riplinger    : Optimizer, TS searches, QM/MM, DLPNO-CCSD(T), (RO)-DLPNO pert. Triples
   Tobias Risthaus        : Range-separated hybrids, TD-DFT gradient, RPA, STAB
   Michael Roemelt        : Original ROCIS implementation
   Masaaki Saitow         : Open-shell DLPNO-CCSD energy and density
   Barbara Sandhoefer     : DKH picture change effects
   Avijit Sen             : IP-ROCIS
   Kantharuban Sivalingam : CASSCF convergence, NEVPT2, FIC-MRCI
   Bernardo de Souza      : ESD, SOC TD-DFT
   Georgi Stoychev        : AutoAux, RI-MP2 NMR, DLPNO-MP2 response
   Willem Van den Heuvel  : Paramagnetic NMR
   Boris Wezisla          : Elementary symmetry handling
   Frank Wennmohs         : Technical directorship


 We gratefully acknowledge several colleagues who have allowed us to
 interface, adapt or use parts of their codes:
   Stefan Grimme, W. Hujo, H. Kruse, P. Pracht,  : VdW corrections, initial TS optimization,
                  C. Bannwarth, S. Ehlert          DFT functionals, gCP, sTDA/sTD-DF
   Ed Valeev, F. Pavosevic, A. Kumar             : LibInt (2-el integral package), F12 methods
   Garnet Chan, S. Sharma, J. Yang, R. Olivares  : DMRG
   Ulf Ekstrom                                   : XCFun DFT Library
   Mihaly Kallay                                 : mrcc  (arbitrary order and MRCC methods)
   Jiri Pittner, Ondrej Demel                    : Mk-CCSD
   Frank Weinhold                                : gennbo (NPA and NBO analysis)
   Christopher J. Cramer and Donald G. Truhlar   : smd solvation model
   Lars Goerigk                                  : TD-DFT with DH, B97 family of functionals
   V. Asgeirsson, H. Jonsson                     : NEB implementation
   FAccTs GmbH                                   : IRC, NEB, NEB-TS, DLPNO-Multilevel, CI-OPT
                                                   MM, QMMM, 2- and 3-layer-ONIOM, Crystal-QMMM,
                                                   LR-CPCM, SF, NACMEs, symmetry and pop. for TD-DFT,
                                                   nearIR, NL-DFT gradient (VV10), updates on ESD,
                                                   ML-optimized integration grids
   S Lehtola, MJT Oliveira, MAL Marques          : LibXC Library
   Liviu Ungur et al                             : ANISO software


 Your calculation uses the libint2 library for the computation of 2-el integrals
 For citations please refer to: http://libint.valeyev.net

 Your ORCA version has been built with support for libXC version: 5.1.0
 For citations please refer to: https://tddft.org/programs/libxc/

 This ORCA versions uses:
   CBLAS   interface :  Fast vector & matrix operations
   LAPACKE interface :  Fast linear algebra routines
   SCALAPACK package :  Parallel linear algebra routines
   Shared memory     :  Shared parallel matrices
   BLAS/LAPACK       :  OpenBLAS 0.3.15  USE64BITINT DYNAMIC_ARCH NO_AFFINITY Zen SINGLE_THREADED
        Core in use  :  Zen
   Copyright (c) 2011-2014, The OpenBLAS Project


Your calculation utilizes the atom-pairwise dispersion correction
with the zero-damping scheme (D30)
Cite in your paper:
S.Grimme, J.Antony, S.Ehrlich and H.Krieg, J.Chem.Phys., 132, (2010), 154104 
   

XCFun DFT library Copyright 2009-2010 Ulf Ekstrom and contributors.
See http://admol.org/xcfun for more information.
This is free software; see the source code for copying conditions.
There is ABSOLUTELY NO WARRANTY; not even for MERCHANTABILITY or FITNESS FOR A PARTICULAR PURPOSE.
For details see the documentation.
Scientific users of this library should cite U. Ekstrom, L. Visscher, R. Bast, A. J. Thorvaldsen and K. Ruud;
J.Chem.Theor.Comp. 2010, DOI: 10.1021/ct100117s
XCFun Version 0.99 

================================================================================

----- Orbital basis set information -----
Your calculation utilizes the basis: def2-TZVPP
   F. Weigend and R. Ahlrichs, Phys. Chem. Chem. Phys. 7, 3297 (2005).

----- AuxJ basis set information -----
Your calculation utilizes the auxiliary basis: def2/J
   F. Weigend, Phys. Chem. Chem. Phys. 8, 1057 (2006).

================================================================================
                                        WARNINGS
                       Please study these warnings very carefully!
================================================================================


WARNING: Geometry Optimization
  ===> : Switching off AutoStart
         For restart on a previous wavefunction, please use MOREAD

INFO   : the flag for use of the SHARK integral package has been found!

================================================================================
                                       INPUT FILE
================================================================================
NAME = Fluoxetine_41.inp
|  1> ! wB97X-D3 TightOpt Freq def2-TZVPP def2/J RIJCOSX TightSCF defgrid3 CHELPG
|  2> %maxcore 3200
|  3> 
|  4> %pal nprocs 8 
|  5> end
|  6> 
|  7> %chelpg
|  8> grid 0.1
|  9> rmax 3.0
| 10> end
| 11> 
| 12> 
| 13> *xyz 1 1
| 14>  C    -1.5277291986    3.9784710344    -0.1050372519
| 15>  N    -2.3865151964    3.2178642603    0.8190474675
| 16>  C    -3.5683508538    2.5776346783    0.1756884675
| 17>  C    -3.1798536769    1.2510584168    -0.4735463264
| 18>  C    -2.6293870621    0.2556883703    0.5607835186
| 19>  C    -2.4180147329    -1.1619403270    0.0704054378
| 20>  C    -1.8796637896    -2.0736226307    0.9736948718
| 21>  C    -1.6481879453    -3.3832769378    0.5982648870
| 22>  C    -1.9629754263    -3.8014815425    -0.6836588544
| 23>  C    -2.5084684272    -2.9030509908    -1.5833949142
| 24>  C    -2.7330679284    -1.5873468813    -1.2135128319
| 25>  O    -1.4440763768    0.7964206460    1.1944679782
| 26>  C    -0.1730862667    0.5085441422    0.7264156276
| 27>  C    0.8442789375    0.6659624045    1.6641496959
| 28>  C    2.1590435031    0.4556652049    1.3035765294
| 29>  C    2.4588253165    0.0819839795    -0.0001066410
| 30>  C    1.4480311342    -0.0706965466    -0.9364777621
| 31>  C    0.1292896364    0.1483783891    -0.5790538750
| 32>  C    3.8926289205    -0.1106403882    -0.4177937811
| 33>  F    4.0262854169    -1.0392124158    -1.3712938106
| 34>  F    4.4043970388    1.0306387824    -0.9202236317
| 35>  F    4.6816626338    -0.4682018415    0.5993313928
| 36>  H    -0.6754290031    4.3895266835    0.4316080425
| 37>  H    -2.0877068483    4.7958117894    -0.5566845147
| 38>  H    -1.1564708656    3.3267059981    -0.8922454472
| 39>  H    -2.6869229333    3.8326683899    1.5795271261
| 40>  H    -3.9898802685    3.2600633848    -0.5651136931
| 41>  H    -4.3209573790    2.3954566414    0.9455556468
| 42>  H    -2.4542463548    1.4158564981    -1.2702081070
| 43>  H    -4.0785570486    0.8244279562    -0.9171350634
| 44>  H    -3.3416449137    0.2107986947    1.3985433435
| 45>  H    -1.6391863236    -1.7512134403    1.9765166550
| 46>  H    -1.2279229409    -4.0768851053    1.3092886959
| 47>  H    -1.7872100125    -4.8236676273    -0.9789429672
| 48>  H    -2.7608490936    -3.2227025014    -2.5824135370
| 49>  H    -3.1559189525    -0.9099204113    -1.9393965477
| 50>  H    0.5890407695    0.9415436613    2.6752109994
| 51>  H    2.9474082152    0.5677333589    2.0308765601
| 52>  H    1.6877073457    -0.3632496874    -1.9465971410
| 53>  H    -0.6404636819    0.0091158842    -1.3189168517
| 54>  H    -1.8386100132    2.3984380481    1.2160802983
| 55> *
| 56> 
| 57> 
| 58>                          ****END OF INPUT****
================================================================================

                       *****************************
                       * Geometry Optimization Run *
                       *****************************

Geometry optimization settings:
Update method            Update   .... BFGS
Choice of coordinates    CoordSys .... Z-matrix Internals
Initial Hessian          InHess   .... Almoef's Model

Convergence Tolerances:
Energy Change            TolE     ....  1.0000e-06 Eh
Max. Gradient            TolMAXG  ....  1.0000e-04 Eh/bohr
RMS Gradient             TolRMSG  ....  3.0000e-05 Eh/bohr
Max. Displacement        TolMAXD  ....  1.0000e-03 bohr
RMS Displacement         TolRMSD  ....  6.0000e-04 bohr
Strict Convergence                ....  False
------------------------------------------------------------------------------
                        ORCA OPTIMIZATION COORDINATE SETUP
------------------------------------------------------------------------------

The optimization will be done in new redundant internal coordinates
Making redundant internal coordinates   ...  (new redundants) done
Evaluating the initial hessian          ...  (Almloef) done
Evaluating the coordinates              ...  done
Calculating the B-matrix                .... done
Calculating the G-matrix                .... done
Diagonalizing the G-matrix              .... done
Small eigenvalue found = 2.061e-03
Small eigenvalue found = 4.472e-03
Small eigenvalue found = 8.818e-03
Small eigenvalue found = 1.039e-02
Small eigenvalue found = 1.117e-02
The first mode is                       ....   99
The number of degrees of freedom        ....  117

    -----------------------------------------------------------------
                    Redundant Internal Coordinates


    -----------------------------------------------------------------
         Definition                    Initial Value    Approx d2E/dq
    -----------------------------------------------------------------
      1. B(N   1,C   0)                  1.4731         0.412406   
      2. B(C   2,N   1)                  1.4901         0.387343   
      3. B(C   3,C   2)                  1.5272         0.377482   
      4. B(C   4,C   3)                  1.5374         0.363550   
      5. B(C   5,C   4)                  1.5149         0.394932   
      6. B(C   6,C   5)                  1.3917         0.620833   
      7. B(C   7,C   6)                  1.3819         0.643603   
      8. B(C   8,C   7)                  1.3847         0.637148   
      9. B(C   9,C   8)                  1.3836         0.639731   
     10. B(C  10,C   9)                  1.3850         0.636286   
     11. B(C  10,C   5)                  1.3888         0.627632   
     12. B(O  11,C   4)                  1.4488         0.450947   
     13. B(C  12,O  11)                  1.3847         0.570624   
     14. B(C  13,C  12)                  1.3925         0.619002   
     15. B(C  14,C  13)                  1.3794         0.649520   
     16. B(C  15,C  14)                  1.3889         0.627282   
     17. B(C  16,C  15)                  1.3863         0.633364   
     18. B(C  17,C  16)                  1.3838         0.639256   
     19. B(C  17,C  12)                  1.3876         0.630357   
     20. B(C  18,C  15)                  1.5058         0.408344   
     21. B(F  19,C  18)                  1.3376         0.630244   
     22. B(F  20,C  18)                  1.3479         0.606903   
     23. B(F  21,C  18)                  1.3360         0.633983   
     24. B(H  22,C   0)                  1.0878         0.362984   
     25. B(H  23,C   0)                  1.0889         0.361617   
     26. B(H  24,C   0)                  1.0873         0.363624   
     27. B(H  25,N   1)                  1.0230         0.412507   
     28. B(H  26,C   2)                  1.0919         0.357632   
     29. B(H  27,C   2)                  1.0919         0.357562   
     30. B(H  28,C   3)                  1.0901         0.359958   
     31. B(H  29,C   3)                  1.0892         0.361102   
     32. B(H  30,C   4)                  1.1005         0.346435   
     33. B(H  31,C   6)                  1.0805         0.372922   
     34. B(H  32,C   7)                  1.0785         0.375570   
     35. B(H  33,C   8)                  1.0784         0.375774   
     36. B(H  34,C   9)                  1.0788         0.375160   
     37. B(H  35,C  10)                  1.0792         0.374710   
     38. B(H  36,C  13)                  1.0786         0.375528   
     39. B(H  37,C  14)                  1.0784         0.375715   
     40. B(H  38,C  16)                  1.0786         0.375504   
     41. B(H  39,C  17)                  1.0767         0.378113   
     42. B(H  40,N   1)                  1.0627         0.356569   
     43. A(N   1,C   0,H  22)          110.0234         0.328096   
     44. A(H  22,C   0,H  24)          108.4293         0.291650   
     45. A(N   1,C   0,H  24)          110.1032         0.328192   
     46. A(H  22,C   0,H  23)          108.8997         0.291397   
     47. A(H  23,C   0,H  24)          108.9800         0.291477   
     48. A(N   1,C   0,H  23)          110.3632         0.327892   
     49. A(C   0,N   1,C   2)          114.4166         0.367233   
     50. A(C   0,N   1,H  25)          109.0999         0.332251   
     51. A(C   2,N   1,H  25)          110.2584         0.328823   
     52. A(C   2,N   1,H  40)          103.8230         0.321042   
     53. A(H  25,N   1,H  40)          109.6987         0.291867   
     54. A(C   0,N   1,H  40)          109.3864         0.324358   
     55. A(N   1,C   2,H  27)          108.2958         0.323926   
     56. A(C   3,C   2,H  26)          110.6520         0.324507   
     57. A(H  26,C   2,H  27)          108.4540         0.290203   
     58. A(N   1,C   2,C   3)          110.7932         0.363979   
     59. A(N   1,C   2,H  26)          109.3039         0.323936   
     60. A(C   3,C   2,H  27)          109.2777         0.324496   
     61. A(C   2,C   3,H  29)          107.6661         0.325022   
     62. A(C   2,C   3,H  28)          110.4075         0.324853   
     63. A(C   4,C   3,H  29)          108.4101         0.323022   
     64. A(C   4,C   3,H  28)          110.5620         0.322854   
     65. A(H  28,C   3,H  29)          108.1065         0.290948   
     66. A(C   2,C   3,C   4)          111.5595         0.362310   
     67. A(C   5,C   4,H  30)          107.3707         0.325221   
     68. A(C   3,C   4,H  30)          107.8677         0.320836   
     69. A(O  11,C   4,H  30)          102.2260         0.330417   
     70. A(C   3,C   4,O  11)          110.2162         0.371194   
     71. A(C   3,C   4,C   5)          115.9796         0.365120   
     72. A(C   5,C   4,O  11)          112.1301         0.376532   
     73. A(C   4,C   5,C   6)          117.1869         0.400675   
     74. A(C   6,C   5,C  10)          119.1522         0.435128   
     75. A(C   4,C   5,C  10)          123.6607         0.401444   
     76. A(C   7,C   6,H  31)          119.8450         0.357266   
     77. A(C   5,C   6,H  31)          119.5390         0.355088   
     78. A(C   5,C   6,C   7)          120.6158         0.437102   
     79. A(C   6,C   7,H  32)          119.7114         0.357696   
     80. A(C   6,C   7,C   8)          119.9776         0.439152   
     81. A(C   8,C   7,H  32)          120.3099         0.357084   
     82. A(C   9,C   8,H  33)          120.1128         0.357362   
     83. A(C   7,C   8,H  33)          120.1805         0.357117   
     84. A(C   7,C   8,C   9)          119.7064         0.438674   
     85. A(C  10,C   9,H  34)          119.3943         0.356935   
     86. A(C   8,C   9,H  34)          120.1335         0.357263   
     87. A(C   8,C   9,C  10)          120.4721         0.438567   
     88. A(C   9,C  10,H  35)          118.6993         0.356863   
     89. A(C   5,C  10,H  35)          121.2284         0.356034   
     90. A(C   5,C  10,C   9)          120.0722         0.437059   
     91. A(C   4,O  11,C  12)          121.7039         0.398937   
     92. A(C  13,C  12,C  17)          120.2441         0.435236   
     93. A(O  11,C  12,C  17)          124.8898         0.426120   
     94. A(O  11,C  12,C  13)          114.8012         0.424736   
     95. A(C  12,C  13,H  36)          119.1594         0.355329   
     96. A(C  12,C  13,C  14)          120.2038         0.437591   
     97. A(C  14,C  13,H  36)          120.6324         0.358246   
     98. A(C  13,C  14,C  15)          119.4778         0.438641   
     99. A(C  15,C  14,H  37)          120.2110         0.356162   
    100. A(C  13,C  14,H  37)          120.3064         0.358277   
    101. A(C  16,C  15,C  18)          119.5269         0.404463   
    102. A(C  14,C  15,C  18)          120.0202         0.403775   
    103. A(C  14,C  15,C  16)          120.4147         0.436653   
    104. A(C  15,C  16,C  17)          120.1964         0.438144   
    105. A(C  17,C  16,H  38)          119.7758         0.357274   
    106. A(C  15,C  16,H  38)          120.0276         0.356712   
    107. A(C  12,C  17,C  16)          119.4575         0.437768   
    108. A(C  16,C  17,H  39)          118.9043         0.357694   
    109. A(C  12,C  17,H  39)          121.6188         0.356843   
    110. A(F  20,C  18,F  21)          106.6275         0.424703   
    111. A(F  19,C  18,F  21)          107.3303         0.427582   
    112. A(C  15,C  18,F  21)          112.6693         0.400189   
    113. A(F  19,C  18,F  20)          106.5069         0.424254   
    114. A(C  15,C  18,F  20)          110.8922         0.397129   
    115. A(C  15,C  18,F  19)          112.4376         0.399773   
    116. D(C   2,N   1,C   0,H  24)    -58.9231         0.015536   
    117. D(H  25,N   1,C   0,H  24)    177.0476         0.015536   
    118. D(H  25,N   1,C   0,H  23)    -62.6027         0.015536   
    119. D(H  25,N   1,C   0,H  22)     57.5959         0.015536   
    120. D(H  40,N   1,C   0,H  24)     57.0474         0.015536   
    121. D(H  40,N   1,C   0,H  22)    -62.4043         0.015536   
    122. D(H  40,N   1,C   0,H  23)    177.3971         0.015536   
    123. D(C   2,N   1,C   0,H  22)   -178.3748         0.015536   
    124. D(C   2,N   1,C   0,H  23)     61.4266         0.015536   
    125. D(H  26,C   2,N   1,H  40)   -158.9851         0.013727   
    126. D(H  26,C   2,N   1,H  25)     83.5743         0.013727   
    127. D(H  26,C   2,N   1,C   0)    -39.8342         0.013727   
    128. D(H  27,C   2,N   1,H  25)    -34.3997         0.013727   
    129. D(C   3,C   2,N   1,C   0)     82.3569         0.013727   
    130. D(C   3,C   2,N   1,H  40)    -36.7940         0.013727   
    131. D(H  27,C   2,N   1,H  40)     83.0409         0.013727   
    132. D(C   3,C   2,N   1,H  25)   -154.2346         0.013727   
    133. D(H  27,C   2,N   1,C   0)   -157.8082         0.013727   
    134. D(H  29,C   3,C   2,H  26)    -59.1612         0.011365   
    135. D(H  29,C   3,C   2,N   1)    179.4382         0.011365   
    136. D(H  28,C   3,C   2,H  27)    178.0001         0.011365   
    137. D(H  28,C   3,C   2,H  26)     58.6462         0.011365   
    138. D(C   4,C   3,C   2,H  27)    -58.6376         0.011365   
    139. D(H  28,C   3,C   2,N   1)    -62.7544         0.011365   
    140. D(C   4,C   3,C   2,H  26)   -177.9916         0.011365   
    141. D(H  29,C   3,C   2,H  27)     60.1927         0.011365   
    142. D(C   4,C   3,C   2,N   1)     60.6078         0.011365   
    143. D(O  11,C   4,C   3,C   2)    -60.5562         0.010589   
    144. D(C   5,C   4,C   3,H  29)     52.3011         0.010589   
    145. D(C   5,C   4,C   3,H  28)    -66.0383         0.010589   
    146. D(C   5,C   4,C   3,C   2)    170.6872         0.010589   
    147. D(H  30,C   4,C   3,H  29)    -68.0987         0.010589   
    148. D(H  30,C   4,C   3,H  28)    173.5619         0.010589   
    149. D(H  30,C   4,C   3,C   2)     50.2874         0.010589   
    150. D(O  11,C   4,C   3,H  29)   -178.9423         0.010589   
    151. D(O  11,C   4,C   3,H  28)     62.7183         0.010589   
    152. D(C  10,C   5,C   4,H  30)    118.4936         0.011589   
    153. D(C  10,C   5,C   4,O  11)   -129.9911         0.011589   
    154. D(C  10,C   5,C   4,C   3)     -2.1738         0.011589   
    155. D(C   6,C   5,C   4,H  30)    -61.3645         0.011589   
    156. D(C   6,C   5,C   4,O  11)     50.1507         0.011589   
    157. D(C   6,C   5,C   4,C   3)    177.9681         0.011589   
    158. D(H  31,C   6,C   5,C  10)   -179.5409         0.026675   
    159. D(H  31,C   6,C   5,C   4)      0.3239         0.026675   
    160. D(C   7,C   6,C   5,C  10)      0.6047         0.026675   
    161. D(C   7,C   6,C   5,C   4)   -179.5305         0.026675   
    162. D(H  32,C   7,C   6,H  31)     -0.0219         0.028802   
    163. D(H  32,C   7,C   6,C   5)    179.8321         0.028802   
    164. D(C   8,C   7,C   6,H  31)    179.6033         0.028802   
    165. D(C   8,C   7,C   6,C   5)     -0.5427         0.028802   
    166. D(H  33,C   8,C   7,H  32)     -0.1432         0.028189   
    167. D(H  33,C   8,C   7,C   6)   -179.7661         0.028189   
    168. D(C   9,C   8,C   7,H  32)    179.6410         0.028189   
    169. D(C   9,C   8,C   7,C   6)      0.0181         0.028189   
    170. D(H  34,C   9,C   8,H  33)      0.0864         0.028433   
    171. D(H  34,C   9,C   8,C   7)   -179.6979         0.028433   
    172. D(C  10,C   9,C   8,H  33)   -179.7764         0.028433   
    173. D(C  10,C   9,C   8,C   7)      0.4393         0.028433   
    174. D(C   5,C  10,C   9,C   8)     -0.3737         0.028107   
    175. D(H  35,C  10,C   5,C   6)    179.7330         0.027300   
    176. D(H  35,C  10,C   5,C   4)     -0.1225         0.027300   
    177. D(C   9,C  10,C   5,C   6)     -0.1464         0.027300   
    178. D(C   9,C  10,C   5,C   4)    179.9980         0.027300   
    179. D(H  35,C  10,C   9,H  34)     -0.1201         0.028107   
    180. D(H  35,C  10,C   9,C   8)    179.7438         0.028107   
    181. D(C   5,C  10,C   9,H  34)    179.7624         0.028107   
    182. D(C  12,O  11,C   4,H  30)    151.6267         0.016015   
    183. D(C  12,O  11,C   4,C   5)     36.9251         0.016015   
    184. D(C  12,O  11,C   4,C   3)    -93.8953         0.016015   
    185. D(C  17,C  12,O  11,C   4)     25.3402         0.023638   
    186. D(C  13,C  12,O  11,C   4)   -157.5978         0.023638   
    187. D(H  36,C  13,C  12,C  17)   -179.7012         0.026509   
    188. D(H  36,C  13,C  12,O  11)      3.0883         0.026509   
    189. D(C  14,C  13,C  12,C  17)     -0.4547         0.026509   
    190. D(C  14,C  13,C  12,O  11)   -177.6651         0.026509   
    191. D(H  37,C  14,C  13,H  36)     -0.1666         0.029371   
    192. D(H  37,C  14,C  13,C  12)   -179.4019         0.029371   
    193. D(C  15,C  14,C  13,H  36)    179.0370         0.029371   
    194. D(C  15,C  14,C  13,C  12)     -0.1983         0.029371   
    195. D(C  18,C  15,C  14,H  37)     -2.6254         0.027267   
    196. D(C  18,C  15,C  14,C  13)    178.1701         0.027267   
    197. D(C  16,C  15,C  14,H  37)    179.6322         0.027267   
    198. D(C  16,C  15,C  14,C  13)      0.4278         0.027267   
    199. D(H  38,C  16,C  15,C  18)      2.3835         0.027833   
    200. D(H  38,C  16,C  15,C  14)   -179.8630         0.027833   
    201. D(C  17,C  16,C  15,C  18)   -177.7570         0.027833   
    202. D(C  17,C  16,C  15,C  14)     -0.0035         0.027833   
    203. D(H  39,C  17,C  16,C  15)   -179.0698         0.028388   
    204. D(C  12,C  17,C  16,H  38)    179.2135         0.028388   
    205. D(C  12,C  17,C  16,C  15)     -0.6463         0.028388   
    206. D(H  39,C  17,C  12,C  13)    179.2543         0.027552   
    207. D(H  39,C  17,C  12,O  11)     -3.8331         0.027552   
    208. D(C  16,C  17,C  12,C  13)      0.8751         0.027552   
    209. D(H  39,C  17,C  16,H  38)      0.7901         0.028388   
    210. D(C  16,C  17,C  12,O  11)    177.7876         0.027552   
    211. D(F  21,C  18,C  15,C  16)   -154.6214         0.012354   
    212. D(F  21,C  18,C  15,C  14)     27.6161         0.012354   
    213. D(F  20,C  18,C  15,C  16)     85.9485         0.012354   
    214. D(F  20,C  18,C  15,C  14)    -91.8139         0.012354   
    215. D(F  19,C  18,C  15,C  16)    -33.1726         0.012354   
    216. D(F  19,C  18,C  15,C  14)    149.0649         0.012354   
    -----------------------------------------------------------------

Number of atoms                         .... 41
Number of degrees of freedom            .... 216

         *************************************************************
         *                GEOMETRY OPTIMIZATION CYCLE   1            *
         *************************************************************
---------------------------------
CARTESIAN COORDINATES (ANGSTROEM)
---------------------------------
  C     -1.527729    3.978471   -0.105037
  N     -2.386515    3.217864    0.819047
  C     -3.568351    2.577635    0.175688
  C     -3.179854    1.251058   -0.473546
  C     -2.629387    0.255688    0.560784
  C     -2.418015   -1.161940    0.070405
  C     -1.879664   -2.073623    0.973695
  C     -1.648188   -3.383277    0.598265
  C     -1.962975   -3.801482   -0.683659
  C     -2.508468   -2.903051   -1.583395
  C     -2.733068   -1.587347   -1.213513
  O     -1.444076    0.796421    1.194468
  C     -0.173086    0.508544    0.726416
  C      0.844279    0.665962    1.664150
  C      2.159044    0.455665    1.303577
  C      2.458825    0.081984   -0.000107
  C      1.448031   -0.070697   -0.936478
  C      0.129290    0.148378   -0.579054
  C      3.892629   -0.110640   -0.417794
  F      4.026285   -1.039212   -1.371294
  F      4.404397    1.030639   -0.920224
  F      4.681663   -0.468202    0.599331
  H     -0.675429    4.389527    0.431608
  H     -2.087707    4.795812   -0.556685
  H     -1.156471    3.326706   -0.892245
  H     -2.686923    3.832668    1.579527
  H     -3.989880    3.260063   -0.565114
  H     -4.320957    2.395457    0.945556
  H     -2.454246    1.415856   -1.270208
  H     -4.078557    0.824428   -0.917135
  H     -3.341645    0.210799    1.398543
  H     -1.639186   -1.751213    1.976517
  H     -1.227923   -4.076885    1.309289
  H     -1.787210   -4.823668   -0.978943
  H     -2.760849   -3.222703   -2.582414
  H     -3.155919   -0.909920   -1.939397
  H      0.589041    0.941544    2.675211
  H      2.947408    0.567733    2.030877
  H      1.687707   -0.363250   -1.946597
  H     -0.640464    0.009116   -1.318917
  H     -1.838610    2.398438    1.216080

----------------------------
CARTESIAN COORDINATES (A.U.)
----------------------------
  NO LB      ZA    FRAG     MASS         X           Y           Z
   0 C     6.0000    0    12.011   -2.886990    7.518221   -0.198492
   1 N     7.0000    0    14.007   -4.509860    6.080882    1.547775
   2 C     6.0000    0    12.011   -6.743206    4.871024    0.332003
   3 C     6.0000    0    12.011   -6.009053    2.364158   -0.894873
   4 C     6.0000    0    12.011   -4.968821    0.483181    1.059727
   5 C     6.0000    0    12.011   -4.569386   -2.195749    0.133047
   6 C     6.0000    0    12.011   -3.552050   -3.918579    1.840017
   7 C     6.0000    0    12.011   -3.114624   -6.393467    1.130557
   8 C     6.0000    0    12.011   -3.709486   -7.183759   -1.291928
   9 C     6.0000    0    12.011   -4.740318   -5.485971   -2.992183
  10 C     6.0000    0    12.011   -5.164750   -2.999651   -2.293207
  11 O     8.0000    0    15.999   -2.728909    1.505017    2.257217
  12 C     6.0000    0    12.011   -0.327086    0.961009    1.372727
  13 C     6.0000    0    12.011    1.595456    1.258487    3.144787
  14 C     6.0000    0    12.011    4.080001    0.861082    2.463403
  15 C     6.0000    0    12.011    4.646506    0.154927   -0.000202
  16 C     6.0000    0    12.011    2.736382   -0.133597   -1.769687
  17 C     6.0000    0    12.011    0.244322    0.280395   -1.094253
  18 C     6.0000    0    12.011    7.356003   -0.209080   -0.789516
  19 F     9.0000    0    18.998    7.608577   -1.963827   -2.591370
  20 F     9.0000    0    18.998    8.323104    1.947625   -1.738971
  21 F     9.0000    0    18.998    8.847060   -0.884773    1.132572
  22 H     1.0000    0     1.008   -1.276376    8.295003    0.815621
  23 H     1.0000    0     1.008   -3.945194    9.062771   -1.051981
  24 H     1.0000    0     1.008   -2.185413    6.286563   -1.686100
  25 H     1.0000    0     1.008   -5.077548    7.242694    2.984874
  26 H     1.0000    0     1.008   -7.539781    6.160627   -1.067910
  27 H     1.0000    0     1.008   -8.165426    4.526757    1.786841
  28 H     1.0000    0     1.008   -4.637853    2.675581   -2.400345
  29 H     1.0000    0     1.008   -7.707356    1.557943   -1.733134
  30 H     1.0000    0     1.008   -6.314794    0.398352    2.642864
  31 H     1.0000    0     1.008   -3.097613   -3.309314    3.735075
  32 H     1.0000    0     1.008   -2.320438   -7.704196    2.474197
  33 H     1.0000    0     1.008   -3.377337   -9.115411   -1.849934
  34 H     1.0000    0     1.008   -5.217249   -6.090025   -4.880054
  35 H     1.0000    0     1.008   -5.963823   -1.719500   -3.664928
  36 H     1.0000    0     1.008    1.113126    1.779260    5.055416
  37 H     1.0000    0     1.008    5.569794    1.072861    3.837801
  38 H     1.0000    0     1.008    3.189305   -0.686442   -3.678535
  39 H     1.0000    0     1.008   -1.210301    0.017227   -2.492392
  40 H     1.0000    0     1.008   -3.474469    4.532391    2.298059

--------------------------------
INTERNAL COORDINATES (ANGSTROEM)
--------------------------------
 C      0   0   0     0.000000000000     0.00000000     0.00000000
 N      1   0   0     1.473081336333     0.00000000     0.00000000
 C      2   1   0     1.490147724775   114.41660987     0.00000000
 C      3   2   1     1.527167460250   110.79315569    82.35689546
 C      4   3   2     1.537404713059   111.55947721    60.60783876
 C      5   4   3     1.514866346279   115.97963283   170.68723989
 C      6   5   4     1.391732072853   117.18692427   177.96810146
 C      7   6   5     1.381927329525   120.61580295   180.46949597
 C      8   7   6     1.384671343082   119.97762531   359.45726323
 C      9   8   7     1.383569675717   119.70637611     0.00000000
 C     10   9   8     1.385039708637   120.47206124     0.43930376
 O      5   4   3     1.448761129037   110.21617829   299.44379994
 C     12   5   4     1.384688320278   121.70392758   266.10471231
 C     13  12   5     1.392536409173   114.80117286   202.40216654
 C     14  13  12     1.379436038212   120.20382547   182.33487685
 C     15  14  13     1.388919221066   119.47777416   359.80172879
 C     16  15  14     1.386292573179   120.41468115     0.42777308
 C     17  16  15     1.383771946724   120.19643238     0.00000000
 C     16  15  14     1.505775371322   120.02024379   178.17013341
 F     19  16  15     1.337636862429   112.43763068   149.06494973
 F     19  16  15     1.347909680553   110.89221272   268.18607279
 F     19  16  15     1.336026950698   112.66929659    27.61613120
 H      1   2   3     1.087828360500   110.02343982   181.62521816
 H      1   2   3     1.088855421046   110.36319910    61.42661968
 H      1   2   3     1.087348681478   110.10318658   301.07694930
 H      2   1   3     1.023014289884   109.09989978   235.97068440
 H      3   2   1     1.091871708610   109.30394367   320.16578536
 H      3   2   1     1.091925314601   108.29575212   202.19177396
 H      4   3   2     1.090107511282   110.40753102   297.24559092
 H      4   3   2     1.089243897302   107.66605998   179.43819618
 H      5   4   3     1.100530714863   107.86769846    50.28744084
 H      7   6   5     1.080476111059   119.53902038     0.32391659
 H      8   7   6     1.078549869393   119.71143813   179.83211827
 H      9   8   7     1.078401863833   120.18048238   180.23393265
 H     10   9   8     1.078847207765   120.13350906   180.30214644
 H     11  10   9     1.079174119270   118.69929877   179.74378038
 H     14  13  12     1.078580785541   119.15939077     3.08834399
 H     15  14  13     1.078444956909   120.30638246   180.59807265
 H     17  16  15     1.078597787027   120.02763179   180.13698428
 H     18  17  16     1.076713258299   118.90427068   180.93023189
 H      2   1   3     1.062682678767   109.38637174   115.97048915

---------------------------
INTERNAL COORDINATES (A.U.)
---------------------------
 C      0   0   0     0.000000000000     0.00000000     0.00000000
 N      1   0   0     2.783720298660     0.00000000     0.00000000
 C      2   1   0     2.815971098910   114.41660987     0.00000000
 C      3   2   1     2.885928260508   110.79315569    82.35689546
 C      4   3   2     2.905273864682   111.55947721    60.60783876
 C      5   4   3     2.862682523961   115.97963283   170.68723989
 C      6   5   4     2.629992469487   117.18692427   177.96810146
 C      7   6   5     2.611464189783   120.61580295   180.46949597
 C      8   7   6     2.616649623913   119.97762531   359.45726323
 C      9   8   7     2.614567774303   119.70637611     0.00000000
 C     10   9   8     2.617345733930   120.47206124     0.43930376
 O      5   4   3     2.737761767351   110.21617829   299.44379994
 C     12   5   4     2.616681706165   121.70392758   266.10471231
 C     13  12   5     2.631512444851   114.80117286   202.40216654
 C     14  13  12     2.606756331481   120.20382547   182.33487685
 C     15  14  13     2.624676949954   119.47777416   359.80172879
 C     16  15  14     2.619713304798   120.41468115     0.42777308
 C     17  16  15     2.614950011112   120.19643238     0.00000000
 C     16  15  14     2.845503071002   120.02024379   178.17013341
 F     19  16  15     2.527767336628   112.43763068   149.06494973
 F     19  16  15     2.547180149506   110.89221272   268.18607279
 F     19  16  15     2.524725044357   112.66929659    27.61613120
 H      1   2   3     2.055697682057   110.02343982   181.62521816
 H      1   2   3     2.057638545213   110.36319910    61.42661968
 H      1   2   3     2.054791220074   110.10318658   301.07694930
 H      2   1   3     1.933216838969   109.09989978   235.97068440
 H      3   2   1     2.063338502649   109.30394367   320.16578536
 H      3   2   1     2.063439803291   108.29575212   202.19177396
 H      4   3   2     2.060004652854   110.40753102   297.24559092
 H      4   3   2     2.058372658946   107.66605998   179.43819618
 H      5   4   3     2.079701653060   107.86769846    50.28744084
 H      7   6   5     2.041803944145   119.53902038     0.32391659
 H      8   7   6     2.038163874930   119.71143813   179.83211827
 H      9   8   7     2.037884184955   120.18048238   180.23393265
 H     10   9   8     2.038725763022   120.13350906   180.30214644
 H     11  10   9     2.039343536236   118.69929877   179.74378038
 H     14  13  12     2.038222297982   119.15939077     3.08834399
 H     15  14  13     2.037965619066   120.30638246   180.59807265
 H     17  16  15     2.038254426135   120.02763179   180.13698428
 H     18  17  16     2.034693182947   118.90427068   180.93023189
 H      2   1   3     2.008179230131   109.38637174   115.97048915

---------------------
BASIS SET INFORMATION
---------------------
There are 5 groups of distinct atoms

 Group   1 Type C   : 11s6p2d1f contracted to 5s3p2d1f pattern {62111/411/11/1}
 Group   2 Type N   : 11s6p2d1f contracted to 5s3p2d1f pattern {62111/411/11/1}
 Group   3 Type O   : 11s6p2d1f contracted to 5s3p2d1f pattern {62111/411/11/1}
 Group   4 Type F   : 11s6p2d1f contracted to 5s3p2d1f pattern {62111/411/11/1}
 Group   5 Type H   : 5s2p1d contracted to 3s2p1d pattern {311/11/1}

Atom   0C    basis set group =>   1
Atom   1N    basis set group =>   2
Atom   2C    basis set group =>   1
Atom   3C    basis set group =>   1
Atom   4C    basis set group =>   1
Atom   5C    basis set group =>   1
Atom   6C    basis set group =>   1
Atom   7C    basis set group =>   1
Atom   8C    basis set group =>   1
Atom   9C    basis set group =>   1
Atom  10C    basis set group =>   1
Atom  11O    basis set group =>   3
Atom  12C    basis set group =>   1
Atom  13C    basis set group =>   1
Atom  14C    basis set group =>   1
Atom  15C    basis set group =>   1
Atom  16C    basis set group =>   1
Atom  17C    basis set group =>   1
Atom  18C    basis set group =>   1
Atom  19F    basis set group =>   4
Atom  20F    basis set group =>   4
Atom  21F    basis set group =>   4
Atom  22H    basis set group =>   5
Atom  23H    basis set group =>   5
Atom  24H    basis set group =>   5
Atom  25H    basis set group =>   5
Atom  26H    basis set group =>   5
Atom  27H    basis set group =>   5
Atom  28H    basis set group =>   5
Atom  29H    basis set group =>   5
Atom  30H    basis set group =>   5
Atom  31H    basis set group =>   5
Atom  32H    basis set group =>   5
Atom  33H    basis set group =>   5
Atom  34H    basis set group =>   5
Atom  35H    basis set group =>   5
Atom  36H    basis set group =>   5
Atom  37H    basis set group =>   5
Atom  38H    basis set group =>   5
Atom  39H    basis set group =>   5
Atom  40H    basis set group =>   5
---------------------------------
AUXILIARY/J BASIS SET INFORMATION
---------------------------------
There are 5 groups of distinct atoms

 Group   1 Type C   : 12s5p4d2f1g contracted to 6s4p3d1f1g pattern {711111/2111/211/2/1}
 Group   2 Type N   : 12s5p4d2f1g contracted to 6s4p3d1f1g pattern {711111/2111/211/2/1}
 Group   3 Type O   : 12s5p4d2f1g contracted to 6s4p3d1f1g pattern {711111/2111/211/2/1}
 Group   4 Type F   : 12s5p4d2f1g contracted to 6s4p3d1f1g pattern {711111/2111/211/2/1}
 Group   5 Type H   : 5s2p1d contracted to 3s1p1d pattern {311/2/1}

Atom   0C    basis set group =>   1
Atom   1N    basis set group =>   2
Atom   2C    basis set group =>   1
Atom   3C    basis set group =>   1
Atom   4C    basis set group =>   1
Atom   5C    basis set group =>   1
Atom   6C    basis set group =>   1
Atom   7C    basis set group =>   1
Atom   8C    basis set group =>   1
Atom   9C    basis set group =>   1
Atom  10C    basis set group =>   1
Atom  11O    basis set group =>   3
Atom  12C    basis set group =>   1
Atom  13C    basis set group =>   1
Atom  14C    basis set group =>   1
Atom  15C    basis set group =>   1
Atom  16C    basis set group =>   1
Atom  17C    basis set group =>   1
Atom  18C    basis set group =>   1
Atom  19F    basis set group =>   4
Atom  20F    basis set group =>   4
Atom  21F    basis set group =>   4
Atom  22H    basis set group =>   5
Atom  23H    basis set group =>   5
Atom  24H    basis set group =>   5
Atom  25H    basis set group =>   5
Atom  26H    basis set group =>   5
Atom  27H    basis set group =>   5
Atom  28H    basis set group =>   5
Atom  29H    basis set group =>   5
Atom  30H    basis set group =>   5
Atom  31H    basis set group =>   5
Atom  32H    basis set group =>   5
Atom  33H    basis set group =>   5
Atom  34H    basis set group =>   5
Atom  35H    basis set group =>   5
Atom  36H    basis set group =>   5
Atom  37H    basis set group =>   5
Atom  38H    basis set group =>   5
Atom  39H    basis set group =>   5
Atom  40H    basis set group =>   5


           ************************************************************
           *        Program running with 8 parallel MPI-processes     *
           *              working on a common directory               *
           ************************************************************
------------------------------------------------------------------------------
                           ORCA GTO INTEGRAL CALCULATION
                           -- RI-GTO INTEGRALS CHOSEN --
------------------------------------------------------------------------------
------------------------------------------------------------------------------
                   ___                                                        
                  /   \      - P O W E R E D   B Y -                         
                 /     \                                                     
                 |  |  |   _    _      __       _____    __    __             
                 |  |  |  | |  | |    /  \     |  _  \  |  |  /  |          
                  \  \/   | |  | |   /    \    | | | |  |  | /  /          
                 / \  \   | |__| |  /  /\  \   | |_| |  |  |/  /          
                |  |  |   |  __  | /  /__\  \  |    /   |      \           
                |  |  |   | |  | | |   __   |  |    \   |  |\   \          
                \     /   | |  | | |  |  |  |  | |\  \  |  | \   \       
                 \___/    |_|  |_| |__|  |__|  |_| \__\ |__|  \__/        
                                                                              
                      - O R C A' S   B I G   F R I E N D -                    
                                      &                                       
                       - I N T E G R A L  F E E D E R -                       
                                                                              
 v1 FN, 2020, v2 2021                                                         
------------------------------------------------------------------------------


Reading SHARK input file Fluoxetine_41.SHARKINP.tmp ... ok
----------------------
SHARK INTEGRAL PACKAGE
----------------------

Number of atoms                             ...     41
Number of basis functions                   ...    948
Number of shells                            ...    356
Maximum angular momentum                    ...      3
Integral batch strategy                     ... SHARK/LIBINT Hybrid
RI-J (if used) integral strategy            ... SPLIT-RIJ (Revised 2003 algorithm where possible)
Printlevel                                  ...      1
Contraction scheme used                     ... SEGMENTED contraction
Coulomb Range Separation                    ... NOT USED
Exchange Range Separation                   ... Long Range
   Mu parameter                             ...  0.250000
   Scaling (regular/separated)              ...  0.195728  0.804272
Finite Nucleus Model                        ... NOT USED
Auxiliary Coulomb fitting basis             ... AVAILABLE
   # of basis functions in Aux-J            ...   1287
   # of shells in Aux-J                     ...    425
   Maximum angular momentum in Aux-J        ...      4
Auxiliary J/K fitting basis                 ... NOT available
Auxiliary Correlation fitting basis         ... NOT available
Auxiliary 'external' fitting basis          ... NOT available
Integral threshold                          ...     2.500000e-11
Primitive cut-off                           ...     2.500000e-12
Primitive pair pre-selection threshold      ...     2.500000e-12

Calculating pre-screening integrals         ... done (  0.1 sec) Dimension = 356
Organizing shell pair data                  ... done (  0.3 sec)
Shell pair information
Total number of shell pairs                 ...     63546
Shell pairs after pre-screening             ...     43954
Total number of primitive shell pairs       ...    176069
Primitive shell pairs kept                  ...     83527
          la=0 lb=0:   9778 shell pairs
          la=1 lb=0:  12598 shell pairs
          la=1 lb=1:   4141 shell pairs
          la=2 lb=0:   6819 shell pairs
          la=2 lb=1:   4495 shell pairs
          la=2 lb=2:   1207 shell pairs
          la=3 lb=0:   2368 shell pairs
          la=3 lb=1:   1563 shell pairs
          la=3 lb=2:    824 shell pairs
          la=3 lb=3:    161 shell pairs

Calculating one electron integrals          ... done (  0.1 sec)
Calculating RI/J V-Matrix + Cholesky decomp.... done (  0.2 sec)
Calculating Nuclear repulsion               ... done (  0.0 sec) ENN=   1871.260010166798 Eh

SHARK setup successfully completed in   1.2 seconds

Maximum memory used throughout the entire GTOINT-calculation: 66.8 MB
[1695247010.753050] [nc30432:489795:0]          mpool.c:42   UCX  WARN  object 0xbf29140 was not returned to mpool ucp_requests
[1695247010.753071] [nc30432:489795:0]          mpool.c:42   UCX  WARN  object 0xbf29300 was not returned to mpool ucp_requests
[1695247010.753074] [nc30432:489795:0]          mpool.c:42   UCX  WARN  object 0xbf294c0 was not returned to mpool ucp_requests
[1695247010.753079] [nc30432:489795:0]          mpool.c:42   UCX  WARN  object 0xbf29840 was not returned to mpool ucp_requests
[1695247010.753082] [nc30432:489795:0]          mpool.c:42   UCX  WARN  object 0xbf29a00 was not returned to mpool ucp_requests
[1695247010.753084] [nc30432:489795:0]          mpool.c:42   UCX  WARN  object 0xbf29bc0 was not returned to mpool ucp_requests
[1695247010.753184] [nc30432:489801:0]          mpool.c:42   UCX  WARN  object 0xc008940 was not returned to mpool ucp_requests
[1695247010.753201] [nc30432:489801:0]          mpool.c:42   UCX  WARN  object 0xc008b00 was not returned to mpool ucp_requests
[1695247010.753206] [nc30432:489801:0]          mpool.c:42   UCX  WARN  object 0xc008cc0 was not returned to mpool ucp_requests
[1695247010.753210] [nc30432:489801:0]          mpool.c:42   UCX  WARN  object 0xc008e80 was not returned to mpool ucp_requests
[1695247010.753212] [nc30432:489801:0]          mpool.c:42   UCX  WARN  object 0xc009040 was not returned to mpool ucp_requests
[1695247010.753216] [nc30432:489801:0]          mpool.c:42   UCX  WARN  object 0xc009200 was not returned to mpool ucp_requests
[1695247010.753218] [nc30432:489801:0]          mpool.c:42   UCX  WARN  object 0xc0093c0 was not returned to mpool ucp_requests
[1695247010.753220] [nc30432:489801:0]          mpool.c:42   UCX  WARN  object 0xc009580 was not returned to mpool ucp_requests
[1695247010.753230] [nc30432:489801:0]          mpool.c:42   UCX  WARN  object 0xc009740 was not returned to mpool ucp_requests
[1695247010.753233] [nc30432:489801:0]          mpool.c:42   UCX  WARN  object 0xc009900 was not returned to mpool ucp_requests
[1695247010.755273] [nc30432:489796:0]          mpool.c:42   UCX  WARN  object 0xc1491c0 was not returned to mpool ucp_requests
[1695247010.755290] [nc30432:489796:0]          mpool.c:42   UCX  WARN  object 0xc149380 was not returned to mpool ucp_requests
[1695247010.755297] [nc30432:489796:0]          mpool.c:42   UCX  WARN  object 0xc149540 was not returned to mpool ucp_requests
[1695247010.755302] [nc30432:489796:0]          mpool.c:42   UCX  WARN  object 0xc149700 was not returned to mpool ucp_requests
[1695247010.755305] [nc30432:489796:0]          mpool.c:42   UCX  WARN  object 0xc1498c0 was not returned to mpool ucp_requests
[1695247010.755308] [nc30432:489796:0]          mpool.c:42   UCX  WARN  object 0xc149a80 was not returned to mpool ucp_requests
[1695247010.755312] [nc30432:489796:0]          mpool.c:42   UCX  WARN  object 0xc149c40 was not returned to mpool ucp_requests
[1695247010.755315] [nc30432:489796:0]          mpool.c:42   UCX  WARN  object 0xc149e00 was not returned to mpool ucp_requests
[1695247010.755319] [nc30432:489796:0]          mpool.c:42   UCX  WARN  object 0xc149fc0 was not returned to mpool ucp_requests
[1695247010.755326] [nc30432:489796:0]          mpool.c:42   UCX  WARN  object 0xc14a180 was not returned to mpool ucp_requests
[1695247010.755285] [nc30432:489798:0]          mpool.c:42   UCX  WARN  object 0xb1366c0 was not returned to mpool ucp_requests
[1695247010.755303] [nc30432:489798:0]          mpool.c:42   UCX  WARN  object 0xb136880 was not returned to mpool ucp_requests
[1695247010.755307] [nc30432:489798:0]          mpool.c:42   UCX  WARN  object 0xb136a40 was not returned to mpool ucp_requests
[1695247010.755309] [nc30432:489798:0]          mpool.c:42   UCX  WARN  object 0xb136c00 was not returned to mpool ucp_requests
[1695247010.755312] [nc30432:489798:0]          mpool.c:42   UCX  WARN  object 0xb136dc0 was not returned to mpool ucp_requests
[1695247010.755316] [nc30432:489798:0]          mpool.c:42   UCX  WARN  object 0xb136f80 was not returned to mpool ucp_requests
[1695247010.755320] [nc30432:489798:0]          mpool.c:42   UCX  WARN  object 0xb137140 was not returned to mpool ucp_requests
[1695247010.755324] [nc30432:489798:0]          mpool.c:42   UCX  WARN  object 0xb137300 was not returned to mpool ucp_requests
[1695247010.755328] [nc30432:489798:0]          mpool.c:42   UCX  WARN  object 0xb1374c0 was not returned to mpool ucp_requests
[1695247010.755331] [nc30432:489798:0]          mpool.c:42   UCX  WARN  object 0xb137680 was not returned to mpool ucp_requests
[1695247010.755641] [nc30432:489797:0]          mpool.c:42   UCX  WARN  object 0xab8f740 was not returned to mpool ucp_requests
[1695247010.755661] [nc30432:489797:0]          mpool.c:42   UCX  WARN  object 0xab8f900 was not returned to mpool ucp_requests
[1695247010.755667] [nc30432:489797:0]          mpool.c:42   UCX  WARN  object 0xab8fac0 was not returned to mpool ucp_requests
[1695247010.755671] [nc30432:489797:0]          mpool.c:42   UCX  WARN  object 0xab8fc80 was not returned to mpool ucp_requests
[1695247010.755674] [nc30432:489797:0]          mpool.c:42   UCX  WARN  object 0xab8fe40 was not returned to mpool ucp_requests
[1695247010.755678] [nc30432:489797:0]          mpool.c:42   UCX  WARN  object 0xab90000 was not returned to mpool ucp_requests
[1695247010.755682] [nc30432:489797:0]          mpool.c:42   UCX  WARN  object 0xab901c0 was not returned to mpool ucp_requests
[1695247010.755688] [nc30432:489797:0]          mpool.c:42   UCX  WARN  object 0xab90380 was not returned to mpool ucp_requests
[1695247010.755691] [nc30432:489797:0]          mpool.c:42   UCX  WARN  object 0xab90540 was not returned to mpool ucp_requests
[1695247010.755696] [nc30432:489797:0]          mpool.c:42   UCX  WARN  object 0xab90700 was not returned to mpool ucp_requests
[1695247010.756911] [nc30432:489800:0]          mpool.c:42   UCX  WARN  object 0xbbdc100 was not returned to mpool ucp_requests
[1695247010.756923] [nc30432:489800:0]          mpool.c:42   UCX  WARN  object 0xbbdc2c0 was not returned to mpool ucp_requests
[1695247010.756927] [nc30432:489800:0]          mpool.c:42   UCX  WARN  object 0xbbdc480 was not returned to mpool ucp_requests
[1695247010.756932] [nc30432:489800:0]          mpool.c:42   UCX  WARN  object 0xbbdc640 was not returned to mpool ucp_requests
[1695247010.756934] [nc30432:489800:0]          mpool.c:42   UCX  WARN  object 0xbbdc800 was not returned to mpool ucp_requests
[1695247010.756939] [nc30432:489800:0]          mpool.c:42   UCX  WARN  object 0xbbdc9c0 was not returned to mpool ucp_requests
[1695247010.756943] [nc30432:489800:0]          mpool.c:42   UCX  WARN  object 0xbbdcb80 was not returned to mpool ucp_requests
[1695247010.756947] [nc30432:489800:0]          mpool.c:42   UCX  WARN  object 0xbbdcd40 was not returned to mpool ucp_requests
[1695247010.756951] [nc30432:489800:0]          mpool.c:42   UCX  WARN  object 0xbbdcf00 was not returned to mpool ucp_requests
[1695247010.756955] [nc30432:489800:0]          mpool.c:42   UCX  WARN  object 0xbbdd0c0 was not returned to mpool ucp_requests
[1695247010.757507] [nc30432:489799:0]          mpool.c:42   UCX  WARN  object 0xbb1cfc0 was not returned to mpool ucp_requests
[1695247010.757520] [nc30432:489799:0]          mpool.c:42   UCX  WARN  object 0xbb1d180 was not returned to mpool ucp_requests
[1695247010.757525] [nc30432:489799:0]          mpool.c:42   UCX  WARN  object 0xbb1d340 was not returned to mpool ucp_requests
[1695247010.757529] [nc30432:489799:0]          mpool.c:42   UCX  WARN  object 0xbb1d500 was not returned to mpool ucp_requests
[1695247010.757532] [nc30432:489799:0]          mpool.c:42   UCX  WARN  object 0xbb1d6c0 was not returned to mpool ucp_requests
[1695247010.757536] [nc30432:489799:0]          mpool.c:42   UCX  WARN  object 0xbb1d880 was not returned to mpool ucp_requests
[1695247010.757540] [nc30432:489799:0]          mpool.c:42   UCX  WARN  object 0xbb1da40 was not returned to mpool ucp_requests
[1695247010.757544] [nc30432:489799:0]          mpool.c:42   UCX  WARN  object 0xbb1dc00 was not returned to mpool ucp_requests
[1695247010.757548] [nc30432:489799:0]          mpool.c:42   UCX  WARN  object 0xbb1ddc0 was not returned to mpool ucp_requests
[1695247010.757552] [nc30432:489799:0]          mpool.c:42   UCX  WARN  object 0xbb1df80 was not returned to mpool ucp_requests


           ************************************************************
           *        Program running with 8 parallel MPI-processes     *
           *              working on a common directory               *
           ************************************************************
-------------------------------------------------------------------------------
                                 ORCA SCF
-------------------------------------------------------------------------------

------------
SCF SETTINGS
------------
Hamiltonian:
 Density Functional     Method          .... DFT(GTOs)
 Exchange Functional    Exchange        .... WB97X-D3
 Correlation Functional Correlation     .... WB97X-D3
 Gradients option       PostSCFGGA      .... off
 Hybrid DFT is turned on
   Fraction HF Exchange ScalHFX         ....  0.195728
   Scaling of DF-GGA-X  ScalDFX         ....  0.000000
   Scaling of DF-GGA-C  ScalDFC         ....  1.000000
   Scaling of DF-LDA-C  ScalLDAC        ....  1.000000
   Perturbative correction              ....  0.000000
   Density functional embedding theory  .... OFF
 Long-range corrected/Screened/Range-Separated Hybrid DFT is turned on
   Amount of maximum screened exact exchange              ....  0.804272
   Range separation parameter mu (erf(mu*r12)/r12)        ....  0.250000
 RI-approximation to the Coulomb term is turned on
   Number of AuxJ basis functions       .... 1287
   RIJ-COSX (HFX calculated with COS-X)).... on


General Settings:
 Integral files         IntName         .... Fluoxetine_41
 Hartree-Fock type      HFTyp           .... RHF
 Total Charge           Charge          ....    1
 Multiplicity           Mult            ....    1
 Number of Electrons    NEL             ....  162
 Basis Dimension        Dim             ....  948
 Nuclear Repulsion      ENuc            ....   1871.2600101668 Eh

Convergence Acceleration:
 DIIS                   CNVDIIS         .... on
   Start iteration      DIISMaxIt       ....    12
   Startup error        DIISStart       ....  0.200000
   # of expansion vecs  DIISMaxEq       ....     5
   Bias factor          DIISBfac        ....   1.050
   Max. coefficient     DIISMaxC        ....  10.000
 Trust-Rad. Augm. Hess. CNVTRAH         .... auto
   Auto Start mean grad. ratio tolernc. ....  1.125000
   Auto Start start iteration           ....    20
   Auto Start num. interpolation iter.  ....    10
   Max. Number of Micro iterations      ....    16
   Max. Number of Macro iterations      .... Maxiter - #DIIS iter
   Number of Davidson start vectors     ....     2
   Converg. threshold I  (grad. norm)   ....   1.000e-05
   Converg. threshold II (energy diff.) ....   1.000e-08
   Grad. Scal. Fac. for Micro threshold ....   0.100
   Minimum threshold for Micro iter.    ....   0.010
   NR start threshold (gradient norm)   ....   0.001
   Initial trust radius                 ....   0.400
   Minimum AH scaling param. (alpha)    ....   1.000
   Maximum AH scaling param. (alpha)    .... 1000.000
   Orbital update algorithm             .... Taylor
   White noise on init. David. guess    .... on
   Maximum white noise                  ....   0.010
   Quad. conv. algorithm                .... NR
 SOSCF                  CNVSOSCF        .... on
   Start iteration      SOSCFMaxIt      ....   150
   Startup grad/error   SOSCFStart      ....  0.003300
 Level Shifting         CNVShift        .... on
   Level shift para.    LevelShift      ....    0.2500
   Turn off err/grad.   ShiftErr        ....    0.0010
 Zerner damping         CNVZerner       .... off
 Static damping         CNVDamp         .... on
   Fraction old density DampFac         ....    0.7000
   Max. Damping (<1)    DampMax         ....    0.9800
   Min. Damping (>=0)   DampMin         ....    0.0000
   Turn off err/grad.   DampErr         ....    0.1000
 Fernandez-Rico         CNVRico         .... off

SCF Procedure:
 Maximum # iterations   MaxIter         ....   125
 SCF integral mode      SCFMode         .... Direct
   Integral package                     .... SHARK and LIBINT hybrid scheme
 Reset frequency        DirectResetFreq ....    20
 Integral Threshold     Thresh          ....  2.500e-11 Eh
 Primitive CutOff       TCut            ....  2.500e-12 Eh

Convergence Tolerance:
 Convergence Check Mode ConvCheckMode   .... Total+1el-Energy
 Convergence forced     ConvForced      .... 0
 Energy Change          TolE            ....  1.000e-08 Eh
 1-El. energy change                    ....  1.000e-05 Eh
 Orbital Gradient       TolG            ....  1.000e-05
 Orbital Rotation angle TolX            ....  1.000e-05
 DIIS Error             TolErr          ....  5.000e-07


Diagonalization of the overlap matrix:
Smallest eigenvalue                        ... 5.973e-06
Time for diagonalization                   ...    0.155 sec
Threshold for overlap eigenvalues          ... 1.000e-08
Number of eigenvalues below threshold      ... 0
Time for construction of square roots      ...    0.096 sec
Total time needed                          ...    0.254 sec

Time for model grid setup =    0.295 sec

------------------------------
INITIAL GUESS: MODEL POTENTIAL
------------------------------
Loading Hartree-Fock densities                     ... done
Calculating cut-offs                               ... done
Initializing the effective Hamiltonian             ... done
Setting up the integral package (SHARK)            ... done
Starting the Coulomb interaction                   ... done (   0.6 sec)
Reading the grid                                   ... done
Mapping shells                                     ... done
Starting the XC term evaluation                    ... done (   0.3 sec)
  promolecular density results
     # of electrons  =    162.995537365
     EX              =   -137.402634312
     EC              =     -5.525119512
     EX+EC           =   -142.927753824
Transforming the Hamiltonian                       ... done (   0.1 sec)
Diagonalizing the Hamiltonian                      ... done (   0.2 sec)
Back transforming the eigenvectors                 ... done (   0.0 sec)
Now organizing SCF variables                       ... done
                      ------------------
                      INITIAL GUESS DONE (   1.6 sec)
                      ------------------
-------------------
DFT GRID GENERATION
-------------------

General Integration Accuracy     IntAcc      ... 4.959
Radial Grid Type                 RadialGrid  ... OptM3 with GC (2021)
Angular Grid (max. ang.)         AngularGrid ... 6 (Lebedev-590)
Angular grid pruning method      GridPruning ... 4 (adaptive)
Weight generation scheme         WeightScheme... Becke
Basis function cutoff            BFCut       ... 1.0000e-11
Integration weight cutoff        WCut        ... 1.0000e-14
Angular grids for H and He will be reduced by one unit
Partially contracted basis set               ... off
Rotationally invariant grid construction     ... off

Total number of grid points                  ...   472144
Total number of batches                      ...     7401
Average number of points per batch           ...       63
Average number of grid points per atom       ...    11516
Time for grid setup =    5.627 sec

--------------------
COSX GRID GENERATION
--------------------

GRIDX 1
-------
General Integration Accuracy     IntAcc      ... 4.020
Radial Grid Type                 RadialGrid  ... OptM3 with GC (2021)
Angular Grid (max. ang.)         AngularGrid ... 2 (Lebedev-110)
Angular grid pruning method      GridPruning ... 4 (adaptive)
Weight generation scheme         WeightScheme... Becke
Basis function cutoff            BFCut       ... 1.0000e-11
Integration weight cutoff        WCut        ... 1.0000e-14
Angular grids for H and He will be reduced by one unit
Partially contracted basis set               ... on
Rotationally invariant grid construction     ... off

Total number of grid points                  ...    52362
Total number of batches                      ...      836
Average number of points per batch           ...       62
Average number of grid points per atom       ...     1277
UseSFitting                                  ... on

GRIDX 2
-------
General Integration Accuracy     IntAcc      ... 4.338
Radial Grid Type                 RadialGrid  ... OptM3 with GC (2021)
Angular Grid (max. ang.)         AngularGrid ... 3 (Lebedev-194)
Angular grid pruning method      GridPruning ... 4 (adaptive)
Weight generation scheme         WeightScheme... Becke
Basis function cutoff            BFCut       ... 1.0000e-11
Integration weight cutoff        WCut        ... 1.0000e-14
Angular grids for H and He will be reduced by one unit
Partially contracted basis set               ... on
Rotationally invariant grid construction     ... off

Total number of grid points                  ...   114395
Total number of batches                      ...     1809
Average number of points per batch           ...       63
Average number of grid points per atom       ...     2790
UseSFitting                                  ... on

GRIDX 3
-------
General Integration Accuracy     IntAcc      ... 4.871
Radial Grid Type                 RadialGrid  ... OptM3 with GC (2021)
Angular Grid (max. ang.)         AngularGrid ... 4 (Lebedev-302)
Angular grid pruning method      GridPruning ... 4 (adaptive)
Weight generation scheme         WeightScheme... Becke
Basis function cutoff            BFCut       ... 1.0000e-11
Integration weight cutoff        WCut        ... 1.0000e-14
Angular grids for H and He will be reduced by one unit
Partially contracted basis set               ... on
Rotationally invariant grid construction     ... off

Total number of grid points                  ...   214819
Total number of batches                      ...     3378
Average number of points per batch           ...       63
Average number of grid points per atom       ...     5239
UseSFitting                                  ... on

Time for X-Grid setup             =    3.610 sec

--------------
SCF ITERATIONS
--------------
ITER       Energy         Delta-E        Max-DP      RMS-DP      [F,P]     Damp
               ***  Starting incremental Fock matrix formation  ***
  0  -1088.2320268356   0.000000000000 0.03050528  0.00040287  0.1456730 0.7000
  1  -1088.3997590588  -0.167732223194 0.02588906  0.00033315  0.0798868 0.7000
                               ***Turning on DIIS***
  2  -1088.4865424209  -0.086783362171 0.06703358  0.00075651  0.0423844 0.0000
  3  -1088.6321038686  -0.145561447683 0.02845334  0.00021506  0.0378509 0.0000
  4  -1088.6513458299  -0.019241961314 0.00931978  0.00008555  0.0046990 0.0000
  5  -1088.6518049636  -0.000459133650 0.00259931  0.00003151  0.0040856 0.0000
                      *** Initiating the SOSCF procedure ***
                           *** Shutting down DIIS ***
                      *** Re-Reading the Fockian *** 
                      *** Removing any level shift *** 
ITER      Energy       Delta-E        Grad      Rot      Max-DP    RMS-DP
  6  -1088.65189235  -0.0000873852  0.000351  0.000351  0.001376  0.000016
               *** Restarting incremental Fock matrix formation ***
  7  -1088.65191051  -0.0000181641  0.000277  0.000696  0.000623  0.000010
  8  -1088.65191411  -0.0000035977  0.000095  0.000299  0.000710  0.000008
  9  -1088.65191506  -0.0000009521  0.000041  0.000057  0.000244  0.000003
 10  -1088.65191529  -0.0000002253  0.000015  0.000029  0.000228  0.000003
 11  -1088.65191531  -0.0000000234  0.000006  0.000018  0.000167  0.000002
                  ***Gradient check signals convergence***
              ***Rediagonalizing the Fockian in SOSCF/NRSCF***

               *****************************************************
               *                     SUCCESS                       *
               *           SCF CONVERGED AFTER  12 CYCLES          *
               *****************************************************

Old exchange energy                            =    -44.809352976 Eh
New exchange energy                            =    -44.809353011 Eh
Exchange energy change after final integration =     -0.000000035 Eh
Total energy after final integration           =  -1088.651915335 Eh
Final COS-X integration done in                =    97.129 sec

----------------
TOTAL SCF ENERGY
----------------

Total Energy       :        -1088.65191533 Eh          -29623.72466 eV

Components:
Nuclear Repulsion  :         1871.26001017 Eh           50919.57358 eV
Electronic Energy  :        -2959.91192550 Eh          -80543.29824 eV
One Electron Energy:        -5186.65212416 Eh         -141135.97951 eV
Two Electron Energy:         2226.74019866 Eh           60592.68128 eV
Max COSX asymmetry :            0.00000054 Eh               0.00001 eV

Virial components:
Potential Energy   :        -2172.85522008 Eh          -59126.39647 eV
Kinetic Energy     :         1084.20330475 Eh           29502.67181 eV
Virial Ratio       :            2.00410311


DFT components:
N(Alpha)           :       81.000041310385 electrons
N(Beta)            :       81.000041310385 electrons
N(Total)           :      162.000082620770 electrons
E(XC)              :     -101.245330708059 Eh       
DFET-embed. en.    :        0.000000000000 Eh       

---------------
SCF CONVERGENCE
---------------

  Last Energy change         ...    1.1421e-08  Tolerance :   1.0000e-08
  Last MAX-Density change    ...    2.7756e-15  Tolerance :   1.0000e-07
  Last RMS-Density change    ...    1.2428e-17  Tolerance :   5.0000e-09
  Last Orbital Gradient      ...    1.9707e-06  Tolerance :   1.0000e-05
  Last Orbital Rotation      ...    8.9726e-06  Tolerance :   1.0000e-05

             **** THE GBW FILE WAS UPDATED (Fluoxetine_41.gbw) ****
             **** DENSITY Fluoxetine_41.scfp WAS UPDATED ****
             **** ENERGY FILE WAS UPDATED (Fluoxetine_41.en.tmp) ****
             **** THE GBW FILE WAS UPDATED (Fluoxetine_41.gbw) ****
             **** DENSITY Fluoxetine_41.scfp WAS UPDATED ****
----------------
ORBITAL ENERGIES
----------------

  NO   OCC          E(Eh)            E(eV) 
   0   2.0000     -24.895232      -677.4337 
   1   2.0000     -24.894532      -677.4146 
   2   2.0000     -24.888722      -677.2565 
   3   2.0000     -19.417519      -528.3776 
   4   2.0000     -14.699513      -399.9941 
   5   2.0000     -10.611124      -288.7434 
   6   2.0000     -10.498573      -285.6807 
   7   2.0000     -10.493418      -285.5404 
   8   2.0000     -10.487816      -285.3880 
   9   2.0000     -10.474542      -285.0268 
  10   2.0000     -10.445219      -284.2289 
  11   2.0000     -10.408360      -283.2259 
  12   2.0000     -10.408150      -283.2201 
  13   2.0000     -10.406284      -283.1694 
  14   2.0000     -10.405384      -283.1449 
  15   2.0000     -10.405228      -283.1406 
  16   2.0000     -10.402557      -283.0680 
  17   2.0000     -10.394414      -282.8464 
  18   2.0000     -10.389676      -282.7175 
  19   2.0000     -10.385559      -282.6054 
  20   2.0000     -10.384245      -282.5697 
  21   2.0000     -10.382753      -282.5291 
  22   2.0000      -1.513473       -41.1837 
  23   2.0000      -1.423091       -38.7243 
  24   2.0000      -1.416417       -38.5427 
  25   2.0000      -1.335689       -36.3459 
  26   2.0000      -1.286851       -35.0170 
  27   2.0000      -1.113122       -30.2896 
  28   2.0000      -1.099431       -29.9170 
  29   2.0000      -1.075855       -29.2755 
  30   2.0000      -1.023801       -27.8590 
  31   2.0000      -1.005948       -27.3732 
  32   2.0000      -0.994817       -27.0704 
  33   2.0000      -0.987211       -26.8634 
  34   2.0000      -0.976089       -26.5607 
  35   2.0000      -0.946016       -25.7424 
  36   2.0000      -0.910931       -24.7877 
  37   2.0000      -0.888137       -24.1674 
  38   2.0000      -0.865341       -23.5471 
  39   2.0000      -0.856761       -23.3136 
  40   2.0000      -0.836815       -22.7709 
  41   2.0000      -0.826331       -22.4856 
  42   2.0000      -0.811131       -22.0720 
  43   2.0000      -0.803534       -21.8653 
  44   2.0000      -0.782251       -21.2861 
  45   2.0000      -0.778948       -21.1962 
  46   2.0000      -0.776815       -21.1382 
  47   2.0000      -0.760024       -20.6813 
  48   2.0000      -0.759194       -20.6587 
  49   2.0000      -0.738019       -20.0825 
  50   2.0000      -0.722549       -19.6616 
  51   2.0000      -0.697017       -18.9668 
  52   2.0000      -0.692536       -18.8449 
  53   2.0000      -0.683644       -18.6029 
  54   2.0000      -0.678576       -18.4650 
  55   2.0000      -0.673267       -18.3205 
  56   2.0000      -0.665047       -18.0968 
  57   2.0000      -0.659508       -17.9461 
  58   2.0000      -0.657036       -17.8789 
  59   2.0000      -0.652574       -17.7575 
  60   2.0000      -0.651468       -17.7273 
  61   2.0000      -0.648524       -17.6472 
  62   2.0000      -0.645867       -17.5749 
  63   2.0000      -0.634373       -17.2622 
  64   2.0000      -0.626637       -17.0517 
  65   2.0000      -0.621075       -16.9003 
  66   2.0000      -0.617749       -16.8098 
  67   2.0000      -0.607428       -16.5290 
  68   2.0000      -0.604187       -16.4408 
  69   2.0000      -0.592877       -16.1330 
  70   2.0000      -0.589770       -16.0485 
  71   2.0000      -0.580244       -15.7892 
  72   2.0000      -0.566125       -15.4051 
  73   2.0000      -0.559123       -15.2145 
  74   2.0000      -0.553352       -15.0575 
  75   2.0000      -0.543109       -14.7788 
  76   2.0000      -0.538569       -14.6552 
  77   2.0000      -0.470302       -12.7976 
  78   2.0000      -0.453622       -12.3437 
  79   2.0000      -0.449211       -12.2236 
  80   2.0000      -0.443809       -12.0767 
  81   0.0000      -0.068274        -1.8578 
  82   0.0000      -0.065870        -1.7924 
  83   0.0000      -0.058328        -1.5872 
  84   0.0000      -0.050688        -1.3793 
  85   0.0000      -0.044129        -1.2008 
  86   0.0000      -0.016080        -0.4375 
  87   0.0000      -0.006361        -0.1731 
  88   0.0000       0.005783         0.1574 
  89   0.0000       0.012749         0.3469 
  90   0.0000       0.017600         0.4789 
  91   0.0000       0.027750         0.7551 
  92   0.0000       0.036197         0.9850 
  93   0.0000       0.038098         1.0367 
  94   0.0000       0.047431         1.2907 
  95   0.0000       0.056675         1.5422 
  96   0.0000       0.061393         1.6706 
  97   0.0000       0.063192         1.7195 
  98   0.0000       0.068031         1.8512 
  99   0.0000       0.075164         2.0453 
 100   0.0000       0.081487         2.2174 
 101   0.0000       0.091702         2.4953 
 102   0.0000       0.092965         2.5297 
 103   0.0000       0.098709         2.6860 
 104   0.0000       0.102900         2.8000 
 105   0.0000       0.108772         2.9598 
 106   0.0000       0.111725         3.0402 
 107   0.0000       0.120763         3.2861 
 108   0.0000       0.122566         3.3352 
 109   0.0000       0.125274         3.4089 
 110   0.0000       0.133587         3.6351 
 111   0.0000       0.139711         3.8017 
 112   0.0000       0.143062         3.8929 
 113   0.0000       0.147078         4.0022 
 114   0.0000       0.153775         4.1844 
 115   0.0000       0.158643         4.3169 
 116   0.0000       0.160682         4.3724 
 117   0.0000       0.165976         4.5164 
 118   0.0000       0.171330         4.6621 
 119   0.0000       0.176368         4.7992 
 120   0.0000       0.180349         4.9075 
 121   0.0000       0.182686         4.9711 
 122   0.0000       0.186665         5.0794 
 123   0.0000       0.192563         5.2399 
 124   0.0000       0.202968         5.5230 
 125   0.0000       0.204099         5.5538 
 126   0.0000       0.213447         5.8082 
 127   0.0000       0.214760         5.8439 
 128   0.0000       0.219110         5.9623 
 129   0.0000       0.222177         6.0458 
 130   0.0000       0.227405         6.1880 
 131   0.0000       0.228554         6.2193 
 132   0.0000       0.238351         6.4859 
 133   0.0000       0.242802         6.6070 
 134   0.0000       0.252252         6.8641 
 135   0.0000       0.256681         6.9846 
 136   0.0000       0.261373         7.1123 
 137   0.0000       0.266200         7.2437 
 138   0.0000       0.272036         7.4025 
 139   0.0000       0.275306         7.4914 
 140   0.0000       0.276390         7.5210 
 141   0.0000       0.280629         7.6363 
 142   0.0000       0.287185         7.8147 
 143   0.0000       0.290544         7.9061 
 144   0.0000       0.296363         8.0644 
 145   0.0000       0.302204         8.2234 
 146   0.0000       0.309107         8.4112 
 147   0.0000       0.312883         8.5140 
 148   0.0000       0.313845         8.5402 
 149   0.0000       0.317860         8.6494 
 150   0.0000       0.326761         8.8916 
 151   0.0000       0.328377         8.9356 
 152   0.0000       0.332696         9.0531 
 153   0.0000       0.336870         9.1667 
 154   0.0000       0.339860         9.2481 
 155   0.0000       0.344181         9.3656 
 156   0.0000       0.350004         9.5241 
 157   0.0000       0.350627         9.5411 
 158   0.0000       0.357289         9.7223 
 159   0.0000       0.358800         9.7634 
 160   0.0000       0.365784         9.9535 
 161   0.0000       0.368116        10.0170 
 162   0.0000       0.371033        10.0963 
 163   0.0000       0.377694        10.2776 
 164   0.0000       0.383216        10.4278 
 165   0.0000       0.385028        10.4771 
 166   0.0000       0.388880        10.5820 
 167   0.0000       0.393304        10.7023 
 168   0.0000       0.394916        10.7462 
 169   0.0000       0.403073        10.9682 
 170   0.0000       0.406025        11.0485 
 171   0.0000       0.412385        11.2216 
[...]
 11:     66.68   0.000305    1.54  0.001426  ( 0.036833 -0.000803  0.008263)
 12:     97.89   0.000412    2.08  0.001315  ( 0.036146  0.000795  0.002720)
 13:    118.04   0.000467    2.36  0.001234  ( 0.008674 -0.033562  0.005700)
 14:    138.83   0.000989    5.00  0.002224  ( 0.024261  0.040437  0.000342)
 15:    166.15   0.000320    1.62  0.000601  (-0.002262  0.001673 -0.024344)
 16:    173.34   0.001028    5.20  0.001851  (-0.012868  0.041052 -0.000673)
 17:    195.84   0.000159    0.81  0.000254  (-0.002583 -0.013232 -0.008490)
 18:    223.77   0.000305    1.54  0.000425  (-0.019423  0.002468 -0.006430)
 19:    255.99   0.000685    3.46  0.000835  ( 0.001914  0.028400 -0.004966)
 20:    266.92   0.004321   21.84  0.005052  ( 0.036663 -0.060792 -0.003479)
 21:    285.76   0.001686    8.52  0.001841  (-0.008923  0.041148  0.008240)
 22:    320.83   0.002837   14.33  0.002759  (-0.016249  0.049772 -0.004220)
 23:    332.42   0.000716    3.62  0.000672  (-0.001488 -0.025264  0.005618)
 24:    383.86   0.000293    1.48  0.000238  ( 0.007122 -0.013686 -0.000050)
 25:    405.74   0.000657    3.32  0.000505  ( 0.000051 -0.017753 -0.013788)
 26:    415.36   0.000092    0.47  0.000069  ( 0.003396  0.006558 -0.003839)
 27:    416.08   0.000158    0.80  0.000118  ( 0.001994  0.005343 -0.009272)
 28:    429.07   0.000157    0.79  0.000114  (-0.002357  0.008614  0.005839)
 29:    449.58   0.000495    2.50  0.000343  (-0.011680 -0.012139  0.007712)
 30:    467.17   0.003462   17.49  0.002312  ( 0.032127 -0.034829 -0.008194)
 31:    489.75   0.002089   10.56  0.001331  (-0.007145 -0.035011  0.007364)
 32:    528.45   0.000171    0.87  0.000101  ( 0.007467 -0.004127  0.005322)
 33:    570.50   0.000183    0.92  0.000100  (-0.007719  0.005679  0.002863)
 34:    582.50   0.000686    3.47  0.000367  ( 0.017144  0.001471 -0.008450)
 35:    602.02   0.002181   11.02  0.001131  (-0.030202 -0.004751  0.014000)
 36:    613.79   0.002450   12.38  0.001246  ( 0.008013 -0.032066  0.012386)
 37:    636.58   0.000057    0.29  0.000028  ( 0.004018 -0.000492  0.003392)
 38:    648.73   0.000411    2.08  0.000198  ( 0.002290  0.012101  0.006784)
 39:    690.28   0.004079   20.61  0.001844  (-0.039318  0.012756  0.011635)
 40:    727.22   0.008713   44.03  0.003739  ( 0.057390  0.008091 -0.019492)
 41:    742.81   0.003262   16.49  0.001371  (-0.032515 -0.017465  0.002884)
 42:    768.20   0.000732    3.70  0.000297  ( 0.003590 -0.016632  0.002815)
 43:    773.77   0.006906   34.90  0.002785  ( 0.045314  0.021140 -0.016879)
 44:    815.04   0.001241    6.27  0.000475  ( 0.017097 -0.007305 -0.011382)
 45:    831.67   0.001236    6.24  0.000464  ( 0.007775  0.019803  0.003325)
 46:    836.67   0.010426   52.69  0.003889  ( 0.021454 -0.057867  0.008936)
 47:    863.03   0.000273    1.38  0.000099  (-0.007045 -0.001474  0.006837)
 48:    865.13   0.001206    6.10  0.000435  (-0.020210  0.001542  0.004921)
 49:    880.01   0.001740    8.79  0.000617  (-0.003160  0.022003 -0.011084)
 50:    884.86   0.012114   61.22  0.004272  ( 0.005528 -0.062851  0.017071)
 51:    926.26   0.000798    4.03  0.000269  (-0.011729 -0.011310  0.001873)
 52:    961.17   0.001481    7.48  0.000481  (-0.014123 -0.013103 -0.010465)
 53:    968.60   0.000944    4.77  0.000304  (-0.015967 -0.005584  0.004255)
 54:   1005.41   0.000573    2.90  0.000178  (-0.007801 -0.010065  0.003957)
 55:   1009.30   0.003269   16.52  0.001011  (-0.028056 -0.008032 -0.012608)
 56:   1023.73   0.000045    0.23  0.000014  (-0.002859 -0.002309 -0.000298)
 57:   1026.40   0.000082    0.42  0.000025  ( 0.003601  0.001908 -0.002902)
 58:   1030.87   0.000797    4.03  0.000241  (-0.007213 -0.013657 -0.001655)
 59:   1039.27   0.004095   20.70  0.001230  (-0.034463 -0.003749  0.005283)
 60:   1052.50   0.000037    0.19  0.000011  (-0.003250 -0.000426  0.000489)
 61:   1062.27   0.002054   10.38  0.000603  (-0.017701 -0.014623 -0.008724)
 62:   1070.50   0.000730    3.69  0.000213  ( 0.012638 -0.007262 -0.000511)
 63:   1072.88   0.024591  124.27  0.007153  (-0.080676 -0.022060 -0.012546)
 64:   1098.22   0.000435    2.20  0.000124  (-0.004479  0.008820 -0.005070)
 65:   1109.50   0.017624   89.06  0.004957  ( 0.061951  0.011613 -0.031373)
 66:   1134.01   0.000209    1.06  0.000058  ( 0.004862 -0.004132  0.004099)
 67:   1148.47   0.006139   31.03  0.001668  (-0.001440 -0.009738 -0.039639)
 68:   1170.48   0.001065    5.38  0.000284  ( 0.013751  0.009147  0.003345)
 69:   1177.09   0.005226   26.41  0.001385  (-0.036678  0.004466 -0.004492)
 70:   1181.99   0.047965  242.40  0.012663  ( 0.013910 -0.103487  0.041957)
 71:   1191.47   0.000037    0.19  0.000010  (-0.000272  0.002210  0.002190)
 72:   1211.54   0.020491  103.55  0.005278  (-0.069635 -0.007277 -0.019390)
 73:   1220.95   0.028865  145.87  0.007378  (-0.007777 -0.039500 -0.075874)
 74:   1221.14   0.001558    7.87  0.000398  (-0.010038 -0.001386  0.017188)
 75:   1244.78   0.001778    8.98  0.000446  (-0.016934  0.010530  0.006934)
 76:   1249.16   0.022840  115.43  0.005706  ( 0.074447  0.012602  0.002184)
 77:   1280.29   0.015835   80.02  0.003860  (-0.050624 -0.035766 -0.004199)
 78:   1308.56   0.001393    7.04  0.000332  (-0.001235 -0.002254  0.018043)
 79:   1331.05   0.003382   17.09  0.000793  (-0.016559 -0.014926 -0.017200)
 80:   1334.62   0.003337   16.86  0.000780  ( 0.022550  0.016001 -0.003959)
 81:   1348.17   0.006388   32.28  0.001479  (-0.028668  0.009219  0.023913)
 82:   1355.92   0.067819  342.73  0.015609  ( 0.123001  0.008627 -0.020124)
 83:   1358.26   0.002181   11.02  0.000501  ( 0.019445 -0.006896 -0.008689)
 84:   1370.07   0.000267    1.35  0.000061  ( 0.003351 -0.000136  0.007038)
 85:   1391.28   0.003954   19.98  0.000887  ( 0.025415 -0.013369 -0.007885)
 86:   1406.52   0.004363   22.05  0.000968  ( 0.015579 -0.025927 -0.007287)
 87:   1424.99   0.000742    3.75  0.000162  ( 0.002440  0.011462 -0.005010)
 88:   1449.53   0.003334   16.85  0.000718  (-0.003617 -0.026543 -0.000372)
 89:   1460.92   0.002815   14.23  0.000601  ( 0.019392  0.014818 -0.002392)
 90:   1472.48   0.000861    4.35  0.000182  ( 0.000274  0.003344  0.013086)
 91:   1476.84   0.004409   22.28  0.000932  (-0.016392 -0.023061  0.011450)
 92:   1486.59   0.002282   11.53  0.000479  (-0.003182 -0.002651 -0.021491)
 93:   1501.85   0.004341   21.94  0.000902  (-0.020918 -0.011500 -0.018227)
 94:   1505.70   0.001578    7.98  0.000327  ( 0.007681 -0.002344  0.016205)
 95:   1506.80   0.002524   12.75  0.000523  ( 0.018593 -0.000586  0.013290)
 96:   1511.87   0.007130   36.03  0.001472  ( 0.017158 -0.034172 -0.003081)
 97:   1554.89   0.001474    7.45  0.000296  (-0.000018 -0.016677 -0.004215)
 98:   1572.08   0.014469   73.12  0.002872  ( 0.052820  0.008403 -0.003392)
 99:   1654.15   0.013840   69.94  0.002611  (-0.015810  0.028200  0.039570)
100:   1670.29   0.001000    5.06  0.000187  (-0.004098  0.001698  0.012931)
101:   1671.81   0.000547    2.76  0.000102  ( 0.002219 -0.000069 -0.009854)
102:   1690.12   0.000124    0.62  0.000023  (-0.003091 -0.003352  0.001426)
103:   1700.87   0.016389   82.82  0.003007  ( 0.054084  0.008409  0.003337)
104:   3067.56   0.001782    9.01  0.000181  ( 0.011600 -0.003717 -0.005737)
105:   3096.47   0.000415    2.10  0.000042  ( 0.005147 -0.001125 -0.003753)
106:   3099.29   0.001442    7.29  0.000145  (-0.008255  0.008577  0.001864)
107:   3102.19   0.000552    2.79  0.000056  ( 0.000746 -0.005630  0.004823)
108:   3143.74   0.000792    4.00  0.000079  (-0.008188  0.000725  0.003320)
109:   3159.81   0.000882    4.46  0.000087  (-0.001114 -0.007923  0.004810)
110:   3200.71   0.000517    2.61  0.000050  (-0.003269  0.006267 -0.000661)
111:   3202.22   0.000640    3.23  0.000062  (-0.000086 -0.007699 -0.001748)
112:   3204.63   0.000461    2.33  0.000045  ( 0.002067 -0.005598  0.003047)
113:   3208.09   0.000498    2.52  0.000048  ( 0.005910 -0.003484 -0.001166)
114:   3209.07   0.000042    0.21  0.000004  ( 0.000724  0.000360  0.001841)
115:   3215.19   0.000455    2.30  0.000044  (-0.001153  0.006515  0.000623)
116:   3223.77   0.001228    6.21  0.000119  ( 0.004020 -0.004006  0.009311)
117:   3224.84   0.000020    0.10  0.000002  (-0.000508  0.000732  0.001068)
118:   3233.40   0.000443    2.24  0.000043  ( 0.001363  0.006020  0.002167)
119:   3234.82   0.000175    0.89  0.000017  ( 0.004031 -0.000431  0.000705)
120:   3259.84   0.000242    1.22  0.000023  ( 0.000352 -0.004680 -0.001047)
121:   3301.32   0.067661  341.93  0.006396  ( 0.033893 -0.070577  0.016307)
122:   3533.96   0.020081  101.48  0.001773  (-0.013257  0.035053  0.019205)

* The epsilon (eps) is given for a Dirac delta lineshape.
** The dipole moment derivative (T) already includes vibrational overlap.

The first frequency considered to be a vibration is 6
The total number of vibrations considered is 117


--------------------------
THERMOCHEMISTRY AT 298.15K
--------------------------

Temperature         ... 298.15 K
Pressure            ... 1.00 atm
Total Mass          ... 310.34 AMU

Throughout the following assumptions are being made:
  (1) The electronic state is orbitally nondegenerate
  (2) There are no thermally accessible electronically excited states
  (3) Hindered rotations indicated by low frequency modes are not
      treated as such but are treated as vibrations and this may
      cause some error
  (4) All equations used are the standard statistical mechanics
      equations for an ideal gas
  (5) All vibrations are strictly harmonic

freq.       7.02  E(vib)   ...       0.58 
freq.      18.09  E(vib)   ...       0.57 
freq.      39.32  E(vib)   ...       0.54 
freq.      49.20  E(vib)   ...       0.52 
freq.      63.59  E(vib)   ...       0.51 
freq.      66.68  E(vib)   ...       0.50 
freq.      97.89  E(vib)   ...       0.46 
freq.     118.04  E(vib)   ...       0.44 
freq.     138.83  E(vib)   ...       0.42 
freq.     166.15  E(vib)   ...       0.39 
freq.     173.34  E(vib)   ...       0.38 
freq.     195.84  E(vib)   ...       0.36 
freq.     223.77  E(vib)   ...       0.33 
freq.     255.99  E(vib)   ...       0.30 
freq.     266.92  E(vib)   ...       0.29 
freq.     285.76  E(vib)   ...       0.28 
freq.     320.83  E(vib)   ...       0.25 
freq.     332.42  E(vib)   ...       0.24 
freq.     383.86  E(vib)   ...       0.20 
freq.     405.74  E(vib)   ...       0.19 
freq.     415.36  E(vib)   ...       0.18 
freq.     416.08  E(vib)   ...       0.18 
freq.     429.07  E(vib)   ...       0.18 
freq.     449.58  E(vib)   ...       0.17 
freq.     467.17  E(vib)   ...       0.16 
freq.     489.75  E(vib)   ...       0.15 
freq.     528.45  E(vib)   ...       0.13 
freq.     570.50  E(vib)   ...       0.11 
freq.     582.50  E(vib)   ...       0.11 
freq.     602.02  E(vib)   ...       0.10 
freq.     613.79  E(vib)   ...       0.10 
freq.     636.58  E(vib)   ...       0.09 
freq.     648.73  E(vib)   ...       0.08 
freq.     690.28  E(vib)   ...       0.07 
freq.     727.22  E(vib)   ...       0.06 
freq.     742.81  E(vib)   ...       0.06 
freq.     768.20  E(vib)   ...       0.06 
freq.     773.77  E(vib)   ...       0.05 
freq.     815.04  E(vib)   ...       0.05 
freq.     831.67  E(vib)   ...       0.04 
freq.     836.67  E(vib)   ...       0.04 
freq.     863.03  E(vib)   ...       0.04 
freq.     865.13  E(vib)   ...       0.04 
freq.     880.01  E(vib)   ...       0.04 
freq.     884.86  E(vib)   ...       0.04 
freq.     926.26  E(vib)   ...       0.03 
freq.     961.17  E(vib)   ...       0.03 
freq.     968.60  E(vib)   ...       0.03 
freq.    1005.41  E(vib)   ...       0.02 
freq.    1009.30  E(vib)   ...       0.02 
freq.    1023.73  E(vib)   ...       0.02 
freq.    1026.40  E(vib)   ...       0.02 
freq.    1030.87  E(vib)   ...       0.02 
freq.    1039.27  E(vib)   ...       0.02 
freq.    1052.50  E(vib)   ...       0.02 
freq.    1062.27  E(vib)   ...       0.02 
freq.    1070.50  E(vib)   ...       0.02 
freq.    1072.88  E(vib)   ...       0.02 
freq.    1098.22  E(vib)   ...       0.02 
freq.    1109.50  E(vib)   ...       0.02 
freq.    1134.01  E(vib)   ...       0.01 
freq.    1148.47  E(vib)   ...       0.01 
freq.    1170.48  E(vib)   ...       0.01 
freq.    1177.09  E(vib)   ...       0.01 
freq.    1181.99  E(vib)   ...       0.01 
freq.    1191.47  E(vib)   ...       0.01 
freq.    1211.54  E(vib)   ...       0.01 
freq.    1220.95  E(vib)   ...       0.01 
freq.    1221.14  E(vib)   ...       0.01 
freq.    1244.78  E(vib)   ...       0.01 
freq.    1249.16  E(vib)   ...       0.01 
freq.    1280.29  E(vib)   ...       0.01 
freq.    1308.56  E(vib)   ...       0.01 
freq.    1331.05  E(vib)   ...       0.01 
freq.    1334.62  E(vib)   ...       0.01 
freq.    1348.17  E(vib)   ...       0.01 
freq.    1355.92  E(vib)   ...       0.01 
freq.    1358.26  E(vib)   ...       0.01 
freq.    1370.07  E(vib)   ...       0.01 
freq.    1391.28  E(vib)   ...       0.00 
freq.    1406.52  E(vib)   ...       0.00 
freq.    1424.99  E(vib)   ...       0.00 
freq.    1449.53  E(vib)   ...       0.00 
freq.    1460.92  E(vib)   ...       0.00 
freq.    1472.48  E(vib)   ...       0.00 
freq.    1476.84  E(vib)   ...       0.00 
freq.    1486.59  E(vib)   ...       0.00 
freq.    1501.85  E(vib)   ...       0.00 
freq.    1505.70  E(vib)   ...       0.00 
freq.    1506.80  E(vib)   ...       0.00 
freq.    1511.87  E(vib)   ...       0.00 
freq.    1554.89  E(vib)   ...       0.00 
freq.    1572.08  E(vib)   ...       0.00 
freq.    1654.15  E(vib)   ...       0.00 
freq.    1670.29  E(vib)   ...       0.00 
freq.    1671.81  E(vib)   ...       0.00 
freq.    1690.12  E(vib)   ...       0.00 
freq.    1700.87  E(vib)   ...       0.00 
freq.    3067.56  E(vib)   ...       0.00 
freq.    3096.47  E(vib)   ...       0.00 
freq.    3099.29  E(vib)   ...       0.00 
freq.    3102.19  E(vib)   ...       0.00 
freq.    3143.74  E(vib)   ...       0.00 
freq.    3159.81  E(vib)   ...       0.00 
freq.    3200.71  E(vib)   ...       0.00 
freq.    3202.22  E(vib)   ...       0.00 
freq.    3204.63  E(vib)   ...       0.00 
freq.    3208.09  E(vib)   ...       0.00 
freq.    3209.07  E(vib)   ...       0.00 
freq.    3215.19  E(vib)   ...       0.00 
freq.    3223.77  E(vib)   ...       0.00 
freq.    3224.84  E(vib)   ...       0.00 
freq.    3233.40  E(vib)   ...       0.00 
freq.    3234.82  E(vib)   ...       0.00 
freq.    3259.84  E(vib)   ...       0.00 
freq.    3301.32  E(vib)   ...       0.00 
freq.    3533.96  E(vib)   ...       0.00 

------------
INNER ENERGY
------------

The inner energy is: U= E(el) + E(ZPE) + E(vib) + E(rot) + E(trans)
    E(el)   - is the total energy from the electronic structure calculation
              = E(kin-el) + E(nuc-el) + E(el-el) + E(nuc-nuc)
    E(ZPE)  - the the zero temperature vibrational energy from the frequency calculation
    E(vib)  - the the finite temperature correction to E(ZPE) due to population
              of excited vibrational states
    E(rot)  - is the rotational thermal energy
    E(trans)- is the translational thermal energy

Summary of contributions to the inner energy U:
Electronic energy                ...  -1088.67701249 Eh
Zero point energy                ...      0.34050175 Eh     213.67 kcal/mol
Thermal vibrational correction   ...      0.01688272 Eh      10.59 kcal/mol
Thermal rotational correction    ...      0.00141627 Eh       0.89 kcal/mol
Thermal translational correction ...      0.00141627 Eh       0.89 kcal/mol
-----------------------------------------------------------------------
Total thermal energy                  -1088.31679547 Eh


Summary of corrections to the electronic energy:
(perhaps to be used in another calculation)
Total thermal correction                  0.01971527 Eh      12.37 kcal/mol
Non-thermal (ZPE) correction              0.34050175 Eh     213.67 kcal/mol
-----------------------------------------------------------------------
Total correction                          0.36021702 Eh     226.04 kcal/mol


--------
ENTHALPY
--------

The enthalpy is H = U + kB*T
                kB is Boltzmann's constant
Total free energy                 ...  -1088.31679547 Eh 
Thermal Enthalpy correction       ...      0.00094421 Eh       0.59 kcal/mol
-----------------------------------------------------------------------
Total Enthalpy                    ...  -1088.31585126 Eh


Note: Only C1 symmetry has been detected, increase convergence thresholds 
      if your molecule has a higher symmetry. Symmetry factor of 1.0 is   
      used for the rotational entropy correction. 
 

Note: Rotational entropy computed according to Herzberg 
Infrared and Raman Spectra, Chapter V,1, Van Nostrand Reinhold, 1945 
Point Group:  C1, Symmetry Number:   1  
Rotational constants in cm-1:     0.012341     0.005986     0.004619 

Vibrational entropy computed according to the QRRHO of S. Grimme
Chem.Eur.J. 2012 18 9955


-------
ENTROPY
-------

The entropy contributions are T*S = T*(S(el)+S(vib)+S(rot)+S(trans))
     S(el)   - electronic entropy
     S(vib)  - vibrational entropy
     S(rot)  - rotational entropy
     S(trans)- translational entropy
The entropies will be listed as multiplied by the temperature to get
units of energy

Electronic entropy                ...      0.00000000 Eh      0.00 kcal/mol
Vibrational entropy               ...      0.03057711 Eh     19.19 kcal/mol
Rotational entropy                ...      0.01654055 Eh     10.38 kcal/mol
Translational entropy             ...      0.02047516 Eh     12.85 kcal/mol
-----------------------------------------------------------------------
Final entropy term                ...      0.06759282 Eh     42.42 kcal/mol

In case the symmetry of your molecule has not been determined correctly
or in case you have a reason to use a different symmetry number we print 
out the resulting rotational entropy values for sn=1,12 :
 --------------------------------------------------------
|  sn= 1 | S(rot)=       0.01654055 Eh     10.38 kcal/mol|
|  sn= 2 | S(rot)=       0.01588609 Eh      9.97 kcal/mol|
|  sn= 3 | S(rot)=       0.01550326 Eh      9.73 kcal/mol|
|  sn= 4 | S(rot)=       0.01523164 Eh      9.56 kcal/mol|
|  sn= 5 | S(rot)=       0.01502095 Eh      9.43 kcal/mol|
|  sn= 6 | S(rot)=       0.01484880 Eh      9.32 kcal/mol|
|  sn= 7 | S(rot)=       0.01470326 Eh      9.23 kcal/mol|
|  sn= 8 | S(rot)=       0.01457718 Eh      9.15 kcal/mol|
|  sn= 9 | S(rot)=       0.01446597 Eh      9.08 kcal/mol|
|  sn=10 | S(rot)=       0.01436649 Eh      9.02 kcal/mol|
|  sn=11 | S(rot)=       0.01427650 Eh      8.96 kcal/mol|
|  sn=12 | S(rot)=       0.01419435 Eh      8.91 kcal/mol|
 --------------------------------------------------------


-------------------
GIBBS FREE ENERGY
-------------------

The Gibbs free energy is G = H - T*S

Total enthalpy                    ...  -1088.31585126 Eh 
Total entropy correction          ...     -0.06759282 Eh    -42.42 kcal/mol
-----------------------------------------------------------------------
Final Gibbs free energy         ...  -1088.38344408 Eh

For completeness - the Gibbs free energy minus the electronic energy
G-E(el)                           ...      0.29356840 Eh    184.22 kcal/mol


Timings for individual modules:

Sum of individual times         ...    20192.515 sec (= 336.542 min)
GTO integral calculation        ...       38.842 sec (=   0.647 min)   0.2 %
SCF iterations                  ...    10269.892 sec (= 171.165 min)  50.9 %
SCF Gradient evaluation         ...     2716.823 sec (=  45.280 min)  13.5 %
Geometry relaxation             ...        2.408 sec (=   0.040 min)   0.0 %
Analytical frequency calculation...     5714.154 sec (=  95.236 min)  28.3 %
CHELPG charge generation        ...     1450.397 sec (=  24.173 min)   7.2 %
                             ****ORCA TERMINATED NORMALLY****
TOTAL RUN TIME: 0 days 5 hours 36 minutes 55 seconds 356 msec
