
Lmod is automatically replacing "intel/2020.1.217" with "gcc/10.3.0".


Due to MODULEPATH changes, the following have been reloaded:
  1) blis/0.8.1     2) flexiblas/3.0.4

The following have been reloaded with a version change:
  1) gcccore/.9.3.0 => gcccore/.10.3.0        3) openmpi/4.0.3 => openmpi/4.1.1
  2) libfabric/1.10.1 => libfabric/1.12.1     4) ucx/1.8.0 => ucx/1.9.0

To execute ORCA, run: 
   ${EBROOTORCA}/orca orca.inp > orca.out

                                 *****************
                                 * O   R   C   A *
                                 *****************

                                            #,                                       
                                            ###                                      
                                            ####                                     
                                            #####                                    
                                            ######                                   
                                           ########,                                 
                                     ,,################,,,,,                         
                               ,,#################################,,                 
                          ,,##########################################,,             
                       ,#########################################, ''#####,          
                    ,#############################################,,   '####,        
                  ,##################################################,,,,####,       
                ,###########''''           ''''###############################       
              ,#####''   ,,,,##########,,,,          '''####'''          '####       
            ,##' ,,,,###########################,,,                        '##       
           ' ,,###''''                  '''############,,,                           
         ,,##''                                '''############,,,,        ,,,,,,###''
      ,#''                                            '''#######################'''  
     '                                                          ''''####''''         
             ,#######,   #######,   ,#######,      ##                                
            ,#'     '#,  ##    ##  ,#'     '#,    #''#        ######   ,####,        
            ##       ##  ##   ,#'  ##            #'  '#       #        #'  '#        
            ##       ##  #######   ##           ,######,      #####,   #    #        
            '#,     ,#'  ##    ##  '#,     ,#' ,#      #,         ##   #,  ,#        
             '#######'   ##     ##  '#######'  #'      '#     #####' # '####'        



                  #######################################################
                  #                        -***-                        #
                  #          Department of theory and spectroscopy      #
                  #    Directorship and core code : Frank Neese         #
                  #        Max Planck Institute fuer Kohlenforschung    #
                  #                Kaiser Wilhelm Platz 1               #
                  #                 D-45470 Muelheim/Ruhr               #
                  #                      Germany                        #
                  #                                                     #
                  #                  All rights reserved                #
                  #                        -***-                        #
                  #######################################################


                         Program Version 5.0.3 -  RELEASE  -


 With contributions from (in alphabetic order):
   Daniel Aravena         : Magnetic Suceptibility
   Michael Atanasov       : Ab Initio Ligand Field Theory (pilot matlab implementation)
   Alexander A. Auer      : GIAO ZORA, VPT2 properties, NMR spectrum
   Ute Becker             : Parallelization
   Giovanni Bistoni       : ED, misc. LED, open-shell LED, HFLD
   Martin Brehm           : Molecular dynamics
   Dmytro Bykov           : SCF Hessian
   Vijay G. Chilkuri      : MRCI spin determinant printing, contributions to CSF-ICE
   Dipayan Datta          : RHF DLPNO-CCSD density
   Achintya Kumar Dutta   : EOM-CC, STEOM-CC
   Dmitry Ganyushin       : Spin-Orbit,Spin-Spin,Magnetic field MRCI
   Miquel Garcia          : C-PCM and meta-GGA Hessian, CC/C-PCM, Gaussian charge scheme
   Yang Guo               : DLPNO-NEVPT2, F12-NEVPT2, CIM, IAO-localization
   Andreas Hansen         : Spin unrestricted coupled pair/coupled cluster methods
   Benjamin Helmich-Paris : MC-RPA, TRAH-SCF, COSX integrals
   Lee Huntington         : MR-EOM, pCC
   Robert Izsak           : Overlap fitted RIJCOSX, COSX-SCS-MP3, EOM
   Marcus Kettner         : VPT2
   Christian Kollmar      : KDIIS, OOCD, Brueckner-CCSD(T), CCSD density, CASPT2, CASPT2-K
   Simone Kossmann        : Meta GGA functionals, TD-DFT gradient, OOMP2, MP2 Hessian
   Martin Krupicka        : Initial AUTO-CI
   Lucas Lang             : DCDCAS
   Marvin Lechner         : AUTO-CI (C++ implementation), FIC-MRCC
   Dagmar Lenk            : GEPOL surface, SMD
   Dimitrios Liakos       : Extrapolation schemes; Compound Job, initial MDCI parallelization
   Dimitrios Manganas     : Further ROCIS development; embedding schemes
   Dimitrios Pantazis     : SARC Basis sets
   Anastasios Papadopoulos: AUTO-CI, single reference methods and gradients
   Taras Petrenko         : DFT Hessian,TD-DFT gradient, ASA, ECA, R-Raman, ABS, FL, XAS/XES, NRVS
   Peter Pinski           : DLPNO-MP2, DLPNO-MP2 Gradient
   Christoph Reimann      : Effective Core Potentials
   Marius Retegan         : Local ZFS, SOC
   Christoph Riplinger    : Optimizer, TS searches, QM/MM, DLPNO-CCSD(T), (RO)-DLPNO pert. Triples
   Tobias Risthaus        : Range-separated hybrids, TD-DFT gradient, RPA, STAB
   Michael Roemelt        : Original ROCIS implementation
   Masaaki Saitow         : Open-shell DLPNO-CCSD energy and density
   Barbara Sandhoefer     : DKH picture change effects
   Avijit Sen             : IP-ROCIS
   Kantharuban Sivalingam : CASSCF convergence, NEVPT2, FIC-MRCI
   Bernardo de Souza      : ESD, SOC TD-DFT
   Georgi Stoychev        : AutoAux, RI-MP2 NMR, DLPNO-MP2 response
   Willem Van den Heuvel  : Paramagnetic NMR
   Boris Wezisla          : Elementary symmetry handling
   Frank Wennmohs         : Technical directorship


 We gratefully acknowledge several colleagues who have allowed us to
 interface, adapt or use parts of their codes:
   Stefan Grimme, W. Hujo, H. Kruse, P. Pracht,  : VdW corrections, initial TS optimization,
                  C. Bannwarth, S. Ehlert          DFT functionals, gCP, sTDA/sTD-DF
   Ed Valeev, F. Pavosevic, A. Kumar             : LibInt (2-el integral package), F12 methods
   Garnet Chan, S. Sharma, J. Yang, R. Olivares  : DMRG
   Ulf Ekstrom                                   : XCFun DFT Library
   Mihaly Kallay                                 : mrcc  (arbitrary order and MRCC methods)
   Jiri Pittner, Ondrej Demel                    : Mk-CCSD
   Frank Weinhold                                : gennbo (NPA and NBO analysis)
   Christopher J. Cramer and Donald G. Truhlar   : smd solvation model
   Lars Goerigk                                  : TD-DFT with DH, B97 family of functionals
   V. Asgeirsson, H. Jonsson                     : NEB implementation
   FAccTs GmbH                                   : IRC, NEB, NEB-TS, DLPNO-Multilevel, CI-OPT
                                                   MM, QMMM, 2- and 3-layer-ONIOM, Crystal-QMMM,
                                                   LR-CPCM, SF, NACMEs, symmetry and pop. for TD-DFT,
                                                   nearIR, NL-DFT gradient (VV10), updates on ESD,
                                                   ML-optimized integration grids
   S Lehtola, MJT Oliveira, MAL Marques          : LibXC Library
   Liviu Ungur et al                             : ANISO software


 Your calculation uses the libint2 library for the computation of 2-el integrals
 For citations please refer to: http://libint.valeyev.net

 Your ORCA version has been built with support for libXC version: 5.1.0
 For citations please refer to: https://tddft.org/programs/libxc/

 This ORCA versions uses:
   CBLAS   interface :  Fast vector & matrix operations
   LAPACKE interface :  Fast linear algebra routines
   SCALAPACK package :  Parallel linear algebra routines
   Shared memory     :  Shared parallel matrices
   BLAS/LAPACK       :  OpenBLAS 0.3.15  USE64BITINT DYNAMIC_ARCH NO_AFFINITY Zen SINGLE_THREADED
        Core in use  :  Zen
   Copyright (c) 2011-2014, The OpenBLAS Project


Your calculation utilizes the atom-pairwise dispersion correction
with the zero-damping scheme (D30)
Cite in your paper:
S.Grimme, J.Antony, S.Ehrlich and H.Krieg, J.Chem.Phys., 132, (2010), 154104 
   

XCFun DFT library Copyright 2009-2010 Ulf Ekstrom and contributors.
See http://admol.org/xcfun for more information.
This is free software; see the source code for copying conditions.
There is ABSOLUTELY NO WARRANTY; not even for MERCHANTABILITY or FITNESS FOR A PARTICULAR PURPOSE.
For details see the documentation.
Scientific users of this library should cite U. Ekstrom, L. Visscher, R. Bast, A. J. Thorvaldsen and K. Ruud;
J.Chem.Theor.Comp. 2010, DOI: 10.1021/ct100117s
XCFun Version 0.99 

================================================================================

----- Orbital basis set information -----
Your calculation utilizes the basis: def2-TZVPP
   F. Weigend and R. Ahlrichs, Phys. Chem. Chem. Phys. 7, 3297 (2005).

----- AuxJ basis set information -----
Your calculation utilizes the auxiliary basis: def2/J
   F. Weigend, Phys. Chem. Chem. Phys. 8, 1057 (2006).

================================================================================
                                        WARNINGS
                       Please study these warnings very carefully!
================================================================================


WARNING: Geometry Optimization
  ===> : Switching off AutoStart
         For restart on a previous wavefunction, please use MOREAD

INFO   : the flag for use of the SHARK integral package has been found!

================================================================================
                                       INPUT FILE
================================================================================
NAME = Fluoxetine_18.inp
|  1> ! wB97X-D3 TightOpt Freq def2-TZVPP def2/J RIJCOSX TightSCF defgrid3 CHELPG
|  2> %maxcore 3200
|  3> 
|  4> %pal nprocs 8 
|  5> end
|  6> 
|  7> %chelpg
|  8> grid 0.1
|  9> rmax 3.0
| 10> end
| 11> 
| 12> 
| 13> *xyz 1 1
| 14>  C    -1.7346383413    3.1154268500    -0.8767198811
| 15>  N    -2.4818295330    1.8472522109    -0.9338881077
| 16>  C    -3.2535799980    1.5327447572    0.3021540797
| 17>  C    -2.3577068155    0.8307155489    1.3175559444
| 18>  C    -1.7838623148    -0.4847652346    0.7436453748
| 19>  C    -2.8967467311    -1.3876515962    0.2462928956
| 20>  C    -3.1294909244    -1.5982658428    -1.1061649943
| 21>  C    -4.1664975405    -2.4205976592    -1.5151108074
| 22>  C    -4.9828909763    -3.0298910061    -0.5789451501
| 23>  C    -4.7519150167    -2.8260313423    0.7718871160
| 24>  C    -3.7129559258    -2.0115609918    1.1833181993
| 25>  O    -0.8938413100    -0.1881590836    -0.3380294748
| 26>  C    0.4551624172    -0.0034702481    -0.1123397048
| 27>  C    1.2338027351    0.0773932800    -1.2657753816
| 28>  C    2.5927030253    0.2902607341    -1.1730530611
| 29>  C    3.1808413946    0.4245620718    0.0787510543
| 30>  C    2.4094892018    0.3465479198    1.2272045122
| 31>  C    1.0437949656    0.1359223304    1.1364596229
| 32>  C    4.6553900633    0.7100190883    0.1857375751
| 33>  F    5.3532965636    0.1887509269    -0.8278197955
| 34>  F    4.8888625939    2.0377543931    0.1706413783
| 35>  F    5.1875380968    0.2424371547    1.3192635769
| 36>  H    -1.0412357068    3.1024556513    -0.0389935763
| 37>  H    -2.4190513968    3.9533684721    -0.7549939749
| 38>  H    -1.1656689777    3.2562699413    -1.7932026975
| 39>  H    -1.7985045380    1.0441860394    -1.0272909238
| 40>  H    -4.0767156856    0.8664519715    0.0358514751
| 41>  H    -3.6666577288    2.4540265328    0.7166077596
| 42>  H    -2.9509063087    0.6015331898    2.2014890515
| 43>  H    -1.5395203840    1.4843839170    1.6246778410
| 44>  H    -1.2407413012    -1.0180762154    1.5304159583
| 45>  H    -2.4803735673    -1.1533846175    -1.8460104957
| 46>  H    -4.3306216041    -2.5873680132    -2.5684006044
| 47>  H    -5.7887109267    -3.6707937799    -0.8994488809
| 48>  H    -5.3756591981    -3.3091995177    1.5071585773
| 49>  H    -3.5266487305    -1.8696657784    2.2375424940
| 50>  H    0.7628938593    -0.0464737514    -2.2282022470
| 51>  H    3.1975033889    0.3431228438    -2.0643446145
| 52>  H    2.8721003208    0.4481961433    2.1963191965
| 53>  H    0.4702690455    0.0797825348    2.0476213456
| 54>  H    -3.1058327639    1.8586180429    -1.7445225998
| 55> *
| 56> 
| 57> 
| 58>                          ****END OF INPUT****
================================================================================

                       *****************************
                       * Geometry Optimization Run *
                       *****************************

Geometry optimization settings:
Update method            Update   .... BFGS
Choice of coordinates    CoordSys .... Z-matrix Internals
Initial Hessian          InHess   .... Almoef's Model

Convergence Tolerances:
Energy Change            TolE     ....  1.0000e-06 Eh
Max. Gradient            TolMAXG  ....  1.0000e-04 Eh/bohr
RMS Gradient             TolRMSG  ....  3.0000e-05 Eh/bohr
Max. Displacement        TolMAXD  ....  1.0000e-03 bohr
RMS Displacement         TolRMSD  ....  6.0000e-04 bohr
Strict Convergence                ....  False
------------------------------------------------------------------------------
                        ORCA OPTIMIZATION COORDINATE SETUP
------------------------------------------------------------------------------

The optimization will be done in new redundant internal coordinates
Making redundant internal coordinates   ...  (new redundants) done
Evaluating the initial hessian          ...  (Almloef) done
Evaluating the coordinates              ...  done
Calculating the B-matrix                .... done
Calculating the G-matrix                .... done
Diagonalizing the G-matrix              .... done
Small eigenvalue found = 3.115e-03
Small eigenvalue found = 4.674e-03
Small eigenvalue found = 8.284e-03
Small eigenvalue found = 1.131e-02
Small eigenvalue found = 1.276e-02
Small eigenvalue found = 1.818e-02
The first mode is                       ....   99
The number of degrees of freedom        ....  117

    -----------------------------------------------------------------
                    Redundant Internal Coordinates


    -----------------------------------------------------------------
         Definition                    Initial Value    Approx d2E/dq
    -----------------------------------------------------------------
      1. B(N   1,C   0)                  1.4730         0.412477   
      2. B(C   2,N   1)                  1.4907         0.386498   
      3. B(C   3,C   2)                  1.5253         0.380111   
      4. B(C   4,C   3)                  1.5457         0.352650   
      5. B(C   5,C   4)                  1.5169         0.391950   
      6. B(C   6,C   5)                  1.3884         0.628466   
      7. B(C   7,C   6)                  1.3852         0.635852   
      8. B(C   8,C   7)                  1.3835         0.639835   
      9. B(C   9,C   8)                  1.3855         0.635172   
     10. B(C  10,C   9)                  1.3828         0.641596   
     11. B(C  10,C   5)                  1.3905         0.623661   
     12. B(O  11,C   4)                  1.4318         0.479889   
     13. B(C  12,O  11)                  1.3802         0.580184   
     14. B(C  13,C  12)                  1.3940         0.615685   
     15. B(C  14,C  13)                  1.3786         0.651534   
     16. B(C  15,C  14)                  1.3896         0.625741   
     17. B(C  16,C  15)                  1.3856         0.634870   
     18. B(C  17,C  16)                  1.3848         0.636806   
     19. B(C  17,C  12)                  1.3876         0.630342   
     20. B(C  18,C  15)                  1.5057         0.408411   
     21. B(F  19,C  18)                  1.3364         0.633003   
     22. B(F  20,C  18)                  1.3482         0.606276   
     23. B(F  21,C  18)                  1.3367         0.632479   
     24. B(H  22,C   0)                  1.0875         0.363358   
     25. B(H  23,C   0)                  1.0888         0.361752   
     26. B(H  24,C   0)                  1.0879         0.362903   
     27. B(H  25,N   1)                  1.0586         0.361995   
     28. B(H  26,C   2)                  1.0920         0.357493   
     29. B(H  27,C   2)                  1.0914         0.358246   
     30. B(H  28,C   3)                  1.0889         0.361531   
     31. B(H  29,C   3)                  1.0913         0.358324   
     32. B(H  30,C   4)                  1.0947         0.353912   
     33. B(H  31,C   6)                  1.0801         0.373420   
     34. B(H  32,C   7)                  1.0790         0.374996   
     35. B(H  33,C   8)                  1.0783         0.375855   
     36. B(H  34,C   9)                  1.0785         0.375658   
     37. B(H  35,C  10)                  1.0799         0.373681   
     38. B(H  36,C  13)                  1.0786         0.375510   
     39. B(H  37,C  14)                  1.0784         0.375757   
     40. B(H  38,C  16)                  1.0787         0.375407   
     41. B(H  39,C  17)                  1.0781         0.376192   
     42. B(H  40,N   1)                  1.0231         0.412448   
     43. A(N   1,C   0,H  22)          110.0621         0.328161   
     44. A(H  22,C   0,H  24)          108.4822         0.291607   
     45. A(N   1,C   0,H  24)          110.1242         0.328094   
     46. A(H  22,C   0,H  23)          108.8963         0.291461   
     47. A(H  23,C   0,H  24)          108.8637         0.291404   
     48. A(N   1,C   0,H  23)          110.3694         0.327922   
     49. A(C   0,N   1,C   2)          114.3339         0.367106   
     50. A(C   0,N   1,H  25)          109.2151         0.325174   
     51. A(C   2,N   1,H  25)          104.3171         0.321721   
     52. A(C   2,N   1,H  40)          110.0944         0.328697   
     53. A(H  25,N   1,H  40)          109.4049         0.292555   
     54. A(C   0,N   1,H  40)          109.3039         0.332252   
     55. A(N   1,C   2,H  27)          109.4335         0.323911   
     56. A(C   3,C   2,H  26)          108.9205         0.324856   
     57. A(H  26,C   2,H  27)          108.8062         0.290272   
     58. A(N   1,C   2,C   3)          110.1824         0.364275   
     59. A(N   1,C   2,H  26)          108.4674         0.323799   
     60. A(C   3,C   2,H  27)          110.9787         0.324969   
     61. A(C   2,C   3,H  29)          110.6100         0.324980   
     62. A(C   2,C   3,H  28)          108.4998         0.325457   
     63. A(C   4,C   3,H  29)          109.6277         0.321009   
     64. A(C   4,C   3,H  28)          108.9367         0.321477   
     65. A(H  28,C   3,H  29)          107.8201         0.290795   
     66. A(C   2,C   3,C   4)          111.2594         0.360860   
     67. A(C   5,C   4,H  30)          108.0383         0.325959   
     68. A(C   3,C   4,H  30)          109.3872         0.320359   
     69. A(O  11,C   4,H  30)          109.6008         0.335026   
     70. A(C   3,C   4,O  11)          109.5706         0.373230   
     71. A(C   3,C   4,C   5)          110.8503         0.362754   
     72. A(C   5,C   4,O  11)          109.3684         0.380109   
     73. A(C   4,C   5,C   6)          122.1848         0.401002   
     74. A(C   6,C   5,C  10)          119.3384         0.435588   
     75. A(C   4,C   5,C  10)          118.4744         0.400461   
     76. A(C   7,C   6,H  31)          119.4850         0.356612   
     77. A(C   5,C   6,H  31)          120.2658         0.355906   
     78. A(C   5,C   6,C   7)          120.2068         0.437110   
     79. A(C   6,C   7,H  32)          119.5923         0.356868   
     80. A(C   6,C   7,C   8)          120.2267         0.438526   
     81. A(C   8,C   7,H  32)          120.1802         0.357246   
     82. A(C   9,C   8,H  33)          120.1194         0.356941   
     83. A(C   7,C   8,H  33)          120.1048         0.357385   
     84. A(C   7,C   8,C   9)          119.7717         0.438441   
     85. A(C  10,C   9,H  34)          119.7078         0.357521   
     86. A(C   8,C   9,H  34)          120.1564         0.356910   
     87. A(C   8,C   9,C  10)          120.1332         0.438659   
     88. A(C   9,C  10,H  35)          119.8331         0.357200   
     89. A(C   5,C  10,H  35)          119.8426         0.355484   
     90. A(C   5,C  10,C   9)          120.3195         0.437214   
     91. A(C   4,O  11,C  12)          120.7804         0.404516   
     92. A(C  13,C  12,C  17)          120.1250         0.434813   
     93. A(O  11,C  12,C  17)          125.1166         0.427388   
     94. A(O  11,C  12,C  13)          114.7344         0.425591   
     95. A(C  12,C  13,H  36)          119.1951         0.355003   
     96. A(C  12,C  13,C  14)          120.2578         0.437411   
     97. A(C  14,C  13,H  36)          120.5377         0.358432   
     98. A(C  13,C  14,C  15)          119.5191         0.438691   
     99. A(C  15,C  14,H  37)          120.1608         0.356020   
    100. A(C  13,C  14,H  37)          120.3176         0.358472   
    101. A(C  16,C  15,C  18)          119.7970         0.404644   
    102. A(C  14,C  15,C  18)          119.7893         0.403611   
    103. A(C  14,C  15,C  16)          120.3704         0.436646   
    104. A(C  15,C  16,C  17)          120.2145         0.438029   
    105. A(C  17,C  16,H  38)          119.7460         0.357025   
    106. A(C  15,C  16,H  38)          120.0394         0.356840   
    107. A(C  12,C  17,C  16)          119.5120         0.437464   
    108. A(C  16,C  17,H  39)          118.5008         0.357152   
    109. A(C  12,C  17,H  39)          121.9863         0.356533   
    110. A(F  20,C  18,F  21)          106.5621         0.424444   
    111. A(F  19,C  18,F  21)          107.3853         0.427735   
    112. A(C  15,C  18,F  21)          112.5697         0.400033   
    113. A(F  19,C  18,F  20)          106.5706         0.424507   
    114. A(C  15,C  18,F  20)          110.8239         0.397069   
    115. A(C  15,C  18,F  19)          112.5547         0.400092   
    116. D(C   2,N   1,C   0,H  24)    177.6387         0.015541   
    117. D(H  25,N   1,C   0,H  24)     61.2136         0.015541   
    118. D(H  25,N   1,C   0,H  23)   -178.5639         0.015541   
    119. D(H  25,N   1,C   0,H  22)    -58.3408         0.015541   
    120. D(H  40,N   1,C   0,H  24)    -58.4484         0.015541   
    121. D(H  40,N   1,C   0,H  22)   -178.0028         0.015541   
    122. D(H  40,N   1,C   0,H  23)     61.7740         0.015541   
    123. D(C   2,N   1,C   0,H  22)     58.0844         0.015541   
    124. D(C   2,N   1,C   0,H  23)    -62.1388         0.015541   
    125. D(H  26,C   2,N   1,H  40)     32.0424         0.013668   
    126. D(H  26,C   2,N   1,H  25)    -85.2469         0.013668   
    127. D(H  26,C   2,N   1,C   0)    155.5308         0.013668   
    128. D(H  27,C   2,N   1,H  25)    156.1833         0.013668   
    129. D(C   3,C   2,N   1,C   0)    -85.3267         0.013668   
    130. D(C   3,C   2,N   1,H  40)    151.1848         0.013668   
    131. D(H  27,C   2,N   1,H  40)    -86.5274         0.013668   
    132. D(C   3,C   2,N   1,H  25)     33.8955         0.013668   
    133. D(H  27,C   2,N   1,C   0)     36.9610         0.013668   
    134. D(H  29,C   3,C   2,H  26)   -178.4089         0.011515   
    135. D(H  29,C   3,C   2,N   1)     62.7252         0.011515   
    136. D(H  28,C   3,C   2,H  27)     59.4270         0.011515   
    137. D(H  28,C   3,C   2,H  26)    -60.3355         0.011515   
    138. D(C   4,C   3,C   2,H  27)    179.2535         0.011515   
    139. D(H  28,C   3,C   2,N   1)   -179.2014         0.011515   
    140. D(C   4,C   3,C   2,H  26)     59.4910         0.011515   
    141. D(H  29,C   3,C   2,H  27)    -58.6464         0.011515   
    142. D(C   4,C   3,C   2,N   1)    -59.3749         0.011515   
    143. D(O  11,C   4,C   3,C   2)     66.1812         0.010008   
    144. D(C   5,C   4,C   3,H  29)   -177.2860         0.010008   
    145. D(C   5,C   4,C   3,H  28)     64.9483         0.010008   
    146. D(C   5,C   4,C   3,C   2)    -54.6186         0.010008   
    147. D(H  30,C   4,C   3,H  29)     63.6819         0.010008   
    148. D(H  30,C   4,C   3,H  28)    -54.0838         0.010008   
    149. D(H  30,C   4,C   3,C   2)   -173.6507         0.010008   
    150. D(O  11,C   4,C   3,H  29)    -56.4862         0.010008   
    151. D(O  11,C   4,C   3,H  28)   -174.2519         0.010008   
    152. D(C  10,C   5,C   4,H  30)     47.9966         0.011423   
    153. D(C  10,C   5,C   4,O  11)    167.2354         0.011423   
    154. D(C  10,C   5,C   4,C   3)    -71.8451         0.011423   
    155. D(C   6,C   5,C   4,H  30)   -132.5721         0.011423   
    156. D(C   6,C   5,C   4,O  11)    -13.3333         0.011423   
    157. D(C   6,C   5,C   4,C   3)    107.5862         0.011423   
    158. D(H  31,C   6,C   5,C  10)   -177.5189         0.027377   
    159. D(H  31,C   6,C   5,C   4)      3.0545         0.027377   
    160. D(C   7,C   6,C   5,C  10)      0.0997         0.027377   
    161. D(C   7,C   6,C   5,C   4)   -179.3269         0.027377   
    162. D(H  32,C   7,C   6,H  31)     -1.5849         0.028067   
    163. D(H  32,C   7,C   6,C   5)   -179.2221         0.028067   
    164. D(C   8,C   7,C   6,H  31)    178.0933         0.028067   
    165. D(C   8,C   7,C   6,C   5)      0.4560         0.028067   
    166. D(H  33,C   8,C   7,H  32)     -0.2358         0.028443   
    167. D(H  33,C   8,C   7,C   6)   -179.9121         0.028443   
    168. D(C   9,C   8,C   7,H  32)    179.0214         0.028443   
    169. D(C   9,C   8,C   7,C   6)     -0.6549         0.028443   
    170. D(H  34,C   9,C   8,H  33)      0.1360         0.028003   
    171. D(H  34,C   9,C   8,C   7)   -179.1211         0.028003   
    172. D(C  10,C   9,C   8,H  33)    179.5551         0.028003   
    173. D(C  10,C   9,C   8,C   7)      0.2980         0.028003   
    174. D(C   5,C  10,C   9,C   8)      0.2588         0.028610   
    175. D(H  35,C  10,C   5,C   6)    178.7447         0.026934   
    176. D(H  35,C  10,C   5,C   4)     -1.8074         0.026934   
    177. D(C   9,C  10,C   5,C   6)     -0.4563         0.026934   
    178. D(C   9,C  10,C   5,C   4)    178.9916         0.026934   
    179. D(H  35,C  10,C   9,H  34)      0.4794         0.028610   
    180. D(H  35,C  10,C   9,C   8)   -178.9423         0.028610   
    181. D(C   5,C  10,C   9,H  34)    179.6805         0.028610   
    182. D(C  12,O  11,C   4,H  30)    -28.8449         0.018167   
    183. D(C  12,O  11,C   4,C   5)   -147.1132         0.018167   
    184. D(C  12,O  11,C   4,C   3)     91.1927         0.018167   
    185. D(C  17,C  12,O  11,C   4)    -11.0335         0.024483   
    186. D(C  13,C  12,O  11,C   4)    170.7547         0.024483   
    187. D(H  36,C  13,C  12,C  17)    179.1769         0.026208   
    188. D(H  36,C  13,C  12,O  11)     -2.5142         0.026208   
    189. D(C  14,C  13,C  12,C  17)      0.2832         0.026208   
    190. D(C  14,C  13,C  12,O  11)    178.5921         0.026208   
    191. D(H  37,C  14,C  13,H  36)      0.5070         0.029566   
    192. D(H  37,C  14,C  13,C  12)    179.3857         0.029566   
    193. D(C  15,C  14,C  13,H  36)   -178.9203         0.029566   
    194. D(C  15,C  14,C  13,C  12)     -0.0416         0.029566   
    195. D(C  18,C  15,C  14,H  37)      2.9220         0.027125   
    196. D(C  18,C  15,C  14,C  13)   -177.6498         0.027125   
    197. D(C  16,C  15,C  14,H  37)   -179.4761         0.027125   
    198. D(C  16,C  15,C  14,C  13)     -0.0480         0.027125   
    199. D(H  38,C  16,C  15,C  18)     -2.6070         0.027974   
    200. D(H  38,C  16,C  15,C  14)    179.7913         0.027974   
    201. D(C  17,C  16,C  15,C  18)    177.4977         0.027974   
    202. D(C  17,C  16,C  15,C  14)     -0.1040         0.027974   
    203. D(H  39,C  17,C  16,C  15)    179.9948         0.028156   
    204. D(C  12,C  17,C  16,H  38)   -179.5524         0.028156   
    205. D(C  12,C  17,C  16,C  15)      0.3432         0.028156   
    206. D(H  39,C  17,C  12,C  13)    179.9289         0.027551   
    207. D(H  39,C  17,C  12,O  11)      1.8067         0.027551   
    208. D(C  16,C  17,C  12,C  13)     -0.4322         0.027551   
    209. D(H  39,C  17,C  16,H  38)      0.0992         0.028156   
    210. D(C  16,C  17,C  12,O  11)   -178.5544         0.027551   
    211. D(F  21,C  18,C  15,C  16)     30.3294         0.012357   
    212. D(F  21,C  18,C  15,C  14)   -152.0548         0.012357   
    213. D(F  20,C  18,C  15,C  16)    -88.9031         0.012357   
    214. D(F  20,C  18,C  15,C  14)     88.7126         0.012357   
    215. D(F  19,C  18,C  15,C  16)    151.8635         0.012357   
    216. D(F  19,C  18,C  15,C  14)    -30.5207         0.012357   
    -----------------------------------------------------------------

Number of atoms                         .... 41
Number of degrees of freedom            .... 216

         *************************************************************
         *                GEOMETRY OPTIMIZATION CYCLE   1            *
         *************************************************************
---------------------------------
CARTESIAN COORDINATES (ANGSTROEM)
---------------------------------
  C     -1.734638    3.115427   -0.876720
  N     -2.481830    1.847252   -0.933888
  C     -3.253580    1.532745    0.302154
  C     -2.357707    0.830716    1.317556
  C     -1.783862   -0.484765    0.743645
  C     -2.896747   -1.387652    0.246293
  C     -3.129491   -1.598266   -1.106165
  C     -4.166498   -2.420598   -1.515111
  C     -4.982891   -3.029891   -0.578945
  C     -4.751915   -2.826031    0.771887
  C     -3.712956   -2.011561    1.183318
  O     -0.893841   -0.188159   -0.338029
  C      0.455162   -0.003470   -0.112340
  C      1.233803    0.077393   -1.265775
  C      2.592703    0.290261   -1.173053
  C      3.180841    0.424562    0.078751
  C      2.409489    0.346548    1.227205
  C      1.043795    0.135922    1.136460
  C      4.655390    0.710019    0.185738
  F      5.353297    0.188751   -0.827820
  F      4.888863    2.037754    0.170641
  F      5.187538    0.242437    1.319264
  H     -1.041236    3.102456   -0.038994
  H     -2.419051    3.953368   -0.754994
  H     -1.165669    3.256270   -1.793203
  H     -1.798505    1.044186   -1.027291
  H     -4.076716    0.866452    0.035851
  H     -3.666658    2.454027    0.716608
  H     -2.950906    0.601533    2.201489
  H     -1.539520    1.484384    1.624678
  H     -1.240741   -1.018076    1.530416
  H     -2.480374   -1.153385   -1.846010
  H     -4.330622   -2.587368   -2.568401
  H     -5.788711   -3.670794   -0.899449
  H     -5.375659   -3.309200    1.507159
  H     -3.526649   -1.869666    2.237542
  H      0.762894   -0.046474   -2.228202
  H      3.197503    0.343123   -2.064345
  H      2.872100    0.448196    2.196319
  H      0.470269    0.079783    2.047621
  H     -3.105833    1.858618   -1.744523

----------------------------
CARTESIAN COORDINATES (A.U.)
----------------------------
  NO LB      ZA    FRAG     MASS         X           Y           Z
   0 C     6.0000    0    12.011   -3.277991    5.887304   -1.656760
   1 N     7.0000    0    14.007   -4.689978    3.490801   -1.764793
   2 C     6.0000    0    12.011   -6.148375    2.896468    0.570988
   3 C     6.0000    0    12.011   -4.455420    1.569825    2.489820
   4 C     6.0000    0    12.011   -3.371011   -0.916074    1.405286
   5 C     6.0000    0    12.011   -5.474058   -2.622281    0.465426
   6 C     6.0000    0    12.011   -5.913881   -3.020285   -2.090349
   7 C     6.0000    0    12.011   -7.873539   -4.574267   -2.863144
   8 C     6.0000    0    12.011   -9.416299   -5.725664   -1.094048
   9 C     6.0000    0    12.011   -8.979818   -5.340425    1.458655
  10 C     6.0000    0    12.011   -7.016470   -3.801299    2.236147
  11 O     8.0000    0    15.999   -1.689115   -0.355569   -0.638783
  12 C     6.0000    0    12.011    0.860132   -0.006558   -0.212291
  13 C     6.0000    0    12.011    2.331549    0.146252   -2.391969
  14 C     6.0000    0    12.011    4.899499    0.548513   -2.216749
  15 C     6.0000    0    12.011    6.010919    0.802306    0.148818
  16 C     6.0000    0    12.011    4.553275    0.654881    2.319080
  17 C     6.0000    0    12.011    1.972487    0.256856    2.147597
  18 C     6.0000    0    12.011    8.797412    1.341742    0.350993
  19 F     9.0000    0    18.998   10.116264    0.356688   -1.564353
  20 F     9.0000    0    18.998    9.238611    3.850798    0.322465
  21 F     9.0000    0    18.998    9.803026    0.458140    2.493047
  22 H     1.0000    0     1.008   -1.967650    5.862792   -0.073687
  23 H     1.0000    0     1.008   -4.571345    7.470784   -1.426732
  24 H     1.0000    0     1.008   -2.202795    6.153458   -3.388662
  25 H     1.0000    0     1.008   -3.398681    1.973226   -1.941299
  26 H     1.0000    0     1.008   -7.703876    1.637357    0.067749
  27 H     1.0000    0     1.008   -6.928979    4.637438    1.354192
  28 H     1.0000    0     1.008   -5.576405    1.136733    4.160211
  29 H     1.0000    0     1.008   -2.909272    2.805079    3.070196
  30 H     1.0000    0     1.008   -2.344661   -1.923885    2.892067
  31 H     1.0000    0     1.008   -4.687227   -2.179581   -3.488454
  32 H     1.0000    0     1.008   -8.183689   -4.889417   -4.853574
  33 H     1.0000    0     1.008  -10.939078   -6.936795   -1.699712
  34 H     1.0000    0     1.008  -10.158524   -6.253481    2.848117
  35 H     1.0000    0     1.008   -6.664400   -3.533156    4.228343
  36 H     1.0000    0     1.008    1.441660   -0.087823   -4.210692
  37 H     1.0000    0     1.008    6.042406    0.648408   -3.901046
  38 H     1.0000    0     1.008    5.427483    0.846968    4.150442
  39 H     1.0000    0     1.008    0.888680    0.150767    3.869444
  40 H     1.0000    0     1.008   -5.869173    3.512279   -3.296670

--------------------------------
INTERNAL COORDINATES (ANGSTROEM)
--------------------------------
 C      0   0   0     0.000000000000     0.00000000     0.00000000
 N      1   0   0     1.473034214926     0.00000000     0.00000000
 C      2   1   0     1.490742770465   114.33386013     0.00000000
 C      3   2   1     1.525278569726   110.18238922   274.67326761
 C      4   3   2     1.545690960263   111.25940520   300.62508607
 C      5   4   3     1.516929462623   110.85025266   305.38142643
 C      6   5   4     1.388405763579   122.18484044   107.58616437
 C      7   6   5     1.385225258271   120.20684459   180.67314480
 C      8   7   6     1.383525483141   120.22666428     0.45604336
 C      9   8   7     1.385516678923   119.77165516   359.34514404
 C     10   9   8     1.382777451621   120.13324674     0.29795969
 O      5   4   3     1.431828578446   109.57057318    66.18123884
 C     12   5   4     1.380165531464   120.78041413    91.19274663
 C     13  12   5     1.393999108806   114.73440643   170.75473946
 C     14  13  12     1.378593479036   120.25782885   178.59211266
 C     15  14  13     1.389588836341   119.51907149   359.95838197
 C     16  15  14     1.385646332298   120.37041452   359.95204972
 C     17  16  15     1.384817143393   120.21445831   359.89600348
 C     16  15  14     1.505730918945   119.78927650   182.35016295
 F     19  16  15     1.336447725408   112.55470907   329.47927659
 F     19  16  15     1.348190771855   110.82389276    88.71262224
 F     19  16  15     1.336673329929   112.56965602   207.94519399
 H      1   2   3     1.087548080446   110.06209597    58.08437484
 H      1   2   3     1.088753686022   110.36942889   297.86119702
 H      1   2   3     1.087889546709   110.12416606   177.63874400
 H      2   1   3     1.058570928495   109.21509579   243.57485310
 H      3   2   1     1.091977799084   108.46738706   155.53081681
 H      3   2   1     1.091405137663   109.43351497    36.96104593
 H      4   3   2     1.088920534421   108.49981605   180.79860332
 H      4   3   2     1.091345605900   110.60998003    62.72518860
 H      5   4   3     1.094718680172   109.38717098   186.34932024
 H      7   6   5     1.080112963469   120.26575319     3.05451388
 H      8   7   6     1.078966383021   119.59231003   180.77786769
 H      9   8   7     1.078343544231   120.10477423   180.08788538
 H     10   9   8     1.078486166509   120.15640416   180.87889038
 H     11  10   9     1.079922907499   119.83307350   181.05772706
 H     14  13  12     1.078593381223   119.19507260   357.48579647
 H     15  14  13     1.078414816114   120.31760517   179.38565859
 H     17  16  15     1.078668011989   120.03943929   179.79129111
 H     18  17  16     1.078099875981   118.50078469   179.99475984
 H      2   1   3     1.023053026042   109.30385971   123.91282830

---------------------------
INTERNAL COORDINATES (A.U.)
---------------------------
 C      0   0   0     0.000000000000     0.00000000     0.00000000
 N      1   0   0     2.783631252106     0.00000000     0.00000000
 C      2   1   0     2.817095572302   114.33386013     0.00000000
 C      3   2   1     2.882358774721   110.18238922   274.67326761
 C      4   3   2     2.920932602576   111.25940520   300.62508607
 C      5   4   3     2.866581248833   110.85025266   305.38142643
 C      6   5   4     2.623706655922   122.18484044   107.58616437
 C      7   6   5     2.617696371922   120.20684459   180.67314480
 C      8   7   6     2.614484262438   120.22666428     0.45604336
 C      9   8   7     2.618247077145   119.77165516   359.34514404
 C     10   9   8     2.613070687726   120.13324674     0.29795969
 O      5   4   3     2.705763883984   109.57057318    66.18123884
 C     12   5   4     2.608134873944   120.78041413    91.19274663
 C     13  12   5     2.634276546573   114.73440643   170.75473946
 C     14  13  12     2.605164125387   120.25782885   178.59211266
 C     15  14  13     2.625942339439   119.51907149   359.95838197
 C     16  15  14     2.618492086516   120.37041452   359.95204972
 C     17  16  15     2.616925146571   120.21445831   359.89600348
 C     16  15  14     2.845419068184   119.78927650   182.35016295
 F     19  16  15     2.525520193323   112.55470907   329.47927659
 F     19  16  15     2.547711335086   110.82389276    88.71262224
 F     19  16  15     2.525946524083   112.56965602   207.94519399
 H      1   2   3     2.055168029514   110.06209597    58.08437484
 H      1   2   3     2.057446293879   110.36942889   297.86119702
 H      1   2   3     2.055813307236   110.12416606   177.63874400
 H      2   1   3     2.000409148186   109.21509579   243.57485310
 H      3   2   1     2.063538984592   108.46738706   155.53081681
 H      3   2   1     2.062456811339   109.43351497    36.96104593
 H      4   3   2     2.057761591658   108.49981605   180.79860332
 H      4   3   2     2.062344312609   110.60998003    62.72518860
 H      5   4   3     2.068718499212   109.38717098   186.34932024
 H      7   6   5     2.041117694655   120.26575319     3.05451388
 H      8   7   6     2.038950971618   119.59231003   180.77786769
 H      9   8   7     2.037773976878   120.10477423   180.08788538
 H     10   9   8     2.038043493925   120.15640416   180.87889038
 H     11  10   9     2.040758540922   119.83307350   181.05772706
 H     14  13  12     2.038246100372   119.19507260   357.48579647
 H     15  14  13     2.037908661219   120.31760517   179.38565859
 H     17  16  15     2.038387132081   120.03943929   179.79129111
 H     18  17  16     2.037313510619   118.50078469   179.99475984
 H      2   1   3     1.933290039698   109.30385971   123.91282830

---------------------
BASIS SET INFORMATION
---------------------
There are 5 groups of distinct atoms

 Group   1 Type C   : 11s6p2d1f contracted to 5s3p2d1f pattern {62111/411/11/1}
 Group   2 Type N   : 11s6p2d1f contracted to 5s3p2d1f pattern {62111/411/11/1}
 Group   3 Type O   : 11s6p2d1f contracted to 5s3p2d1f pattern {62111/411/11/1}
 Group   4 Type F   : 11s6p2d1f contracted to 5s3p2d1f pattern {62111/411/11/1}
 Group   5 Type H   : 5s2p1d contracted to 3s2p1d pattern {311/11/1}

Atom   0C    basis set group =>   1
Atom   1N    basis set group =>   2
Atom   2C    basis set group =>   1
Atom   3C    basis set group =>   1
Atom   4C    basis set group =>   1
Atom   5C    basis set group =>   1
Atom   6C    basis set group =>   1
Atom   7C    basis set group =>   1
Atom   8C    basis set group =>   1
Atom   9C    basis set group =>   1
Atom  10C    basis set group =>   1
Atom  11O    basis set group =>   3
Atom  12C    basis set group =>   1
Atom  13C    basis set group =>   1
Atom  14C    basis set group =>   1
Atom  15C    basis set group =>   1
Atom  16C    basis set group =>   1
Atom  17C    basis set group =>   1
Atom  18C    basis set group =>   1
Atom  19F    basis set group =>   4
Atom  20F    basis set group =>   4
Atom  21F    basis set group =>   4
Atom  22H    basis set group =>   5
Atom  23H    basis set group =>   5
Atom  24H    basis set group =>   5
Atom  25H    basis set group =>   5
Atom  26H    basis set group =>   5
Atom  27H    basis set group =>   5
Atom  28H    basis set group =>   5
Atom  29H    basis set group =>   5
Atom  30H    basis set group =>   5
Atom  31H    basis set group =>   5
Atom  32H    basis set group =>   5
Atom  33H    basis set group =>   5
Atom  34H    basis set group =>   5
Atom  35H    basis set group =>   5
Atom  36H    basis set group =>   5
Atom  37H    basis set group =>   5
Atom  38H    basis set group =>   5
Atom  39H    basis set group =>   5
Atom  40H    basis set group =>   5
---------------------------------
AUXILIARY/J BASIS SET INFORMATION
---------------------------------
There are 5 groups of distinct atoms

 Group   1 Type C   : 12s5p4d2f1g contracted to 6s4p3d1f1g pattern {711111/2111/211/2/1}
 Group   2 Type N   : 12s5p4d2f1g contracted to 6s4p3d1f1g pattern {711111/2111/211/2/1}
 Group   3 Type O   : 12s5p4d2f1g contracted to 6s4p3d1f1g pattern {711111/2111/211/2/1}
 Group   4 Type F   : 12s5p4d2f1g contracted to 6s4p3d1f1g pattern {711111/2111/211/2/1}
 Group   5 Type H   : 5s2p1d contracted to 3s1p1d pattern {311/2/1}

Atom   0C    basis set group =>   1
Atom   1N    basis set group =>   2
Atom   2C    basis set group =>   1
Atom   3C    basis set group =>   1
Atom   4C    basis set group =>   1
Atom   5C    basis set group =>   1
Atom   6C    basis set group =>   1
Atom   7C    basis set group =>   1
Atom   8C    basis set group =>   1
Atom   9C    basis set group =>   1
Atom  10C    basis set group =>   1
Atom  11O    basis set group =>   3
Atom  12C    basis set group =>   1
Atom  13C    basis set group =>   1
Atom  14C    basis set group =>   1
Atom  15C    basis set group =>   1
Atom  16C    basis set group =>   1
Atom  17C    basis set group =>   1
Atom  18C    basis set group =>   1
Atom  19F    basis set group =>   4
Atom  20F    basis set group =>   4
Atom  21F    basis set group =>   4
Atom  22H    basis set group =>   5
Atom  23H    basis set group =>   5
Atom  24H    basis set group =>   5
Atom  25H    basis set group =>   5
Atom  26H    basis set group =>   5
Atom  27H    basis set group =>   5
Atom  28H    basis set group =>   5
Atom  29H    basis set group =>   5
Atom  30H    basis set group =>   5
Atom  31H    basis set group =>   5
Atom  32H    basis set group =>   5
Atom  33H    basis set group =>   5
Atom  34H    basis set group =>   5
Atom  35H    basis set group =>   5
Atom  36H    basis set group =>   5
Atom  37H    basis set group =>   5
Atom  38H    basis set group =>   5
Atom  39H    basis set group =>   5
Atom  40H    basis set group =>   5


           ************************************************************
           *        Program running with 8 parallel MPI-processes     *
           *              working on a common directory               *
           ************************************************************
------------------------------------------------------------------------------
                           ORCA GTO INTEGRAL CALCULATION
                           -- RI-GTO INTEGRALS CHOSEN --
------------------------------------------------------------------------------
------------------------------------------------------------------------------
                   ___                                                        
                  /   \      - P O W E R E D   B Y -                         
                 /     \                                                     
                 |  |  |   _    _      __       _____    __    __             
                 |  |  |  | |  | |    /  \     |  _  \  |  |  /  |          
                  \  \/   | |  | |   /    \    | | | |  |  | /  /          
                 / \  \   | |__| |  /  /\  \   | |_| |  |  |/  /          
                |  |  |   |  __  | /  /__\  \  |    /   |      \           
                |  |  |   | |  | | |   __   |  |    \   |  |\   \          
                \     /   | |  | | |  |  |  |  | |\  \  |  | \   \       
                 \___/    |_|  |_| |__|  |__|  |_| \__\ |__|  \__/        
                                                                              
                      - O R C A' S   B I G   F R I E N D -                    
                                      &                                       
                       - I N T E G R A L  F E E D E R -                       
                                                                              
 v1 FN, 2020, v2 2021                                                         
------------------------------------------------------------------------------


Reading SHARK input file Fluoxetine_18.SHARKINP.tmp ... ok
----------------------
SHARK INTEGRAL PACKAGE
----------------------

Number of atoms                             ...     41
Number of basis functions                   ...    948
Number of shells                            ...    356
Maximum angular momentum                    ...      3
Integral batch strategy                     ... SHARK/LIBINT Hybrid
RI-J (if used) integral strategy            ... SPLIT-RIJ (Revised 2003 algorithm where possible)
Printlevel                                  ...      1
Contraction scheme used                     ... SEGMENTED contraction
Coulomb Range Separation                    ... NOT USED
Exchange Range Separation                   ... Long Range
   Mu parameter                             ...  0.250000
   Scaling (regular/separated)              ...  0.195728  0.804272
Finite Nucleus Model                        ... NOT USED
Auxiliary Coulomb fitting basis             ... AVAILABLE
   # of basis functions in Aux-J            ...   1287
   # of shells in Aux-J                     ...    425
   Maximum angular momentum in Aux-J        ...      4
Auxiliary J/K fitting basis                 ... NOT available
Auxiliary Correlation fitting basis         ... NOT available
Auxiliary 'external' fitting basis          ... NOT available
Integral threshold                          ...     2.500000e-11
Primitive cut-off                           ...     2.500000e-12
Primitive pair pre-selection threshold      ...     2.500000e-12

Calculating pre-screening integrals         ... done (  0.1 sec) Dimension = 356
Organizing shell pair data                  ... done (  0.3 sec)
Shell pair information
Total number of shell pairs                 ...     63546
Shell pairs after pre-screening             ...     42360
Total number of primitive shell pairs       ...    176069
Primitive shell pairs kept                  ...     80545
          la=0 lb=0:   9423 shell pairs
          la=1 lb=0:  12184 shell pairs
          la=1 lb=1:   4023 shell pairs
          la=2 lb=0:   6564 shell pairs
          la=2 lb=1:   4328 shell pairs
          la=2 lb=2:   1158 shell pairs
          la=3 lb=0:   2261 shell pairs
          la=3 lb=1:   1492 shell pairs
          la=3 lb=2:    777 shell pairs
          la=3 lb=3:    150 shell pairs

Calculating one electron integrals          ... done (  0.1 sec)
Calculating RI/J V-Matrix + Cholesky decomp.... done (  0.3 sec)
Calculating Nuclear repulsion               ... done (  0.0 sec) ENN=   1822.440493068311 Eh

SHARK setup successfully completed in   1.3 seconds

Maximum memory used throughout the entire GTOINT-calculation: 65.1 MB
[1695247011.979288] [nc10316:3827955:0]          mpool.c:42   UCX  WARN  object 0xa541940 was not returned to mpool ucp_requests
[1695247011.979307] [nc10316:3827955:0]          mpool.c:42   UCX  WARN  object 0xa541b00 was not returned to mpool ucp_requests
[1695247011.979312] [nc10316:3827955:0]          mpool.c:42   UCX  WARN  object 0xa541cc0 was not returned to mpool ucp_requests
[1695247011.979315] [nc10316:3827955:0]          mpool.c:42   UCX  WARN  object 0xa541e80 was not returned to mpool ucp_requests
[1695247011.979319] [nc10316:3827955:0]          mpool.c:42   UCX  WARN  object 0xa542040 was not returned to mpool ucp_requests
[1695247011.979322] [nc10316:3827955:0]          mpool.c:42   UCX  WARN  object 0xa542200 was not returned to mpool ucp_requests
[1695247011.979325] [nc10316:3827955:0]          mpool.c:42   UCX  WARN  object 0xa5423c0 was not returned to mpool ucp_requests
[1695247011.979328] [nc10316:3827955:0]          mpool.c:42   UCX  WARN  object 0xa542580 was not returned to mpool ucp_requests
[1695247011.979331] [nc10316:3827955:0]          mpool.c:42   UCX  WARN  object 0xa542740 was not returned to mpool ucp_requests
[1695247011.979333] [nc10316:3827955:0]          mpool.c:42   UCX  WARN  object 0xa542900 was not returned to mpool ucp_requests
[1695247011.979457] [nc10316:3827956:0]          mpool.c:42   UCX  WARN  object 0xc3ba580 was not returned to mpool ucp_requests
[1695247011.979478] [nc10316:3827956:0]          mpool.c:42   UCX  WARN  object 0xc3ba740 was not returned to mpool ucp_requests
[1695247011.979483] [nc10316:3827956:0]          mpool.c:42   UCX  WARN  object 0xc3ba900 was not returned to mpool ucp_requests
[1695247011.979486] [nc10316:3827956:0]          mpool.c:42   UCX  WARN  object 0xc3baac0 was not returned to mpool ucp_requests
[1695247011.979490] [nc10316:3827956:0]          mpool.c:42   UCX  WARN  object 0xc3bac80 was not returned to mpool ucp_requests
[1695247011.979493] [nc10316:3827956:0]          mpool.c:42   UCX  WARN  object 0xc3bae40 was not returned to mpool ucp_requests
[1695247011.979497] [nc10316:3827956:0]          mpool.c:42   UCX  WARN  object 0xc3bb000 was not returned to mpool ucp_requests
[1695247011.979503] [nc10316:3827956:0]          mpool.c:42   UCX  WARN  object 0xc3bb1c0 was not returned to mpool ucp_requests
[1695247011.979507] [nc10316:3827956:0]          mpool.c:42   UCX  WARN  object 0xc3bb380 was not returned to mpool ucp_requests
[1695247011.979509] [nc10316:3827956:0]          mpool.c:42   UCX  WARN  object 0xc3bb540 was not returned to mpool ucp_requests
[1695247011.979544] [nc10316:3827953:0]          mpool.c:42   UCX  WARN  object 0xb2eaf00 was not returned to mpool ucp_requests
[1695247011.979556] [nc10316:3827953:0]          mpool.c:42   UCX  WARN  object 0xb2eb0c0 was not returned to mpool ucp_requests
[1695247011.979560] [nc10316:3827953:0]          mpool.c:42   UCX  WARN  object 0xb2eb280 was not returned to mpool ucp_requests
[1695247011.979563] [nc10316:3827953:0]          mpool.c:42   UCX  WARN  object 0xb2eb440 was not returned to mpool ucp_requests
[1695247011.979566] [nc10316:3827953:0]          mpool.c:42   UCX  WARN  object 0xb2eb600 was not returned to mpool ucp_requests
[1695247011.979569] [nc10316:3827953:0]          mpool.c:42   UCX  WARN  object 0xb2eb7c0 was not returned to mpool ucp_requests
[1695247011.979572] [nc10316:3827953:0]          mpool.c:42   UCX  WARN  object 0xb2eb980 was not returned to mpool ucp_requests
[1695247011.979574] [nc10316:3827953:0]          mpool.c:42   UCX  WARN  object 0xb2ebb40 was not returned to mpool ucp_requests
[1695247011.979578] [nc10316:3827953:0]          mpool.c:42   UCX  WARN  object 0xb2ebd00 was not returned to mpool ucp_requests
[1695247011.979580] [nc10316:3827953:0]          mpool.c:42   UCX  WARN  object 0xb2ebec0 was not returned to mpool ucp_requests
[1695247011.979735] [nc10316:3827958:0]          mpool.c:42   UCX  WARN  object 0xbc70a40 was not returned to mpool ucp_requests
[1695247011.979752] [nc10316:3827958:0]          mpool.c:42   UCX  WARN  object 0xbc70c00 was not returned to mpool ucp_requests
[1695247011.979757] [nc10316:3827958:0]          mpool.c:42   UCX  WARN  object 0xbc70dc0 was not returned to mpool ucp_requests
[1695247011.979760] [nc10316:3827958:0]          mpool.c:42   UCX  WARN  object 0xbc70f80 was not returned to mpool ucp_requests
[1695247011.979763] [nc10316:3827958:0]          mpool.c:42   UCX  WARN  object 0xbc71140 was not returned to mpool ucp_requests
[1695247011.979767] [nc10316:3827958:0]          mpool.c:42   UCX  WARN  object 0xbc71300 was not returned to mpool ucp_requests
[1695247011.979769] [nc10316:3827958:0]          mpool.c:42   UCX  WARN  object 0xbc714c0 was not returned to mpool ucp_requests
[1695247011.979773] [nc10316:3827958:0]          mpool.c:42   UCX  WARN  object 0xbc71680 was not returned to mpool ucp_requests
[1695247011.979775] [nc10316:3827958:0]          mpool.c:42   UCX  WARN  object 0xbc71840 was not returned to mpool ucp_requests
[1695247011.979778] [nc10316:3827958:0]          mpool.c:42   UCX  WARN  object 0xbc71a00 was not returned to mpool ucp_requests
[1695247011.979946] [nc10316:3827957:0]          mpool.c:42   UCX  WARN  object 0xb814a00 was not returned to mpool ucp_requests
[1695247011.979963] [nc10316:3827957:0]          mpool.c:42   UCX  WARN  object 0xb814bc0 was not returned to mpool ucp_requests
[1695247011.979970] [nc10316:3827957:0]          mpool.c:42   UCX  WARN  object 0xb814d80 was not returned to mpool ucp_requests
[1695247011.979974] [nc10316:3827957:0]          mpool.c:42   UCX  WARN  object 0xb814f40 was not returned to mpool ucp_requests
[1695247011.979977] [nc10316:3827957:0]          mpool.c:42   UCX  WARN  object 0xb815100 was not returned to mpool ucp_requests
[1695247011.979980] [nc10316:3827957:0]          mpool.c:42   UCX  WARN  object 0xb8152c0 was not returned to mpool ucp_requests
[1695247011.979985] [nc10316:3827957:0]          mpool.c:42   UCX  WARN  object 0xb815480 was not returned to mpool ucp_requests
[1695247011.979988] [nc10316:3827957:0]          mpool.c:42   UCX  WARN  object 0xb815640 was not returned to mpool ucp_requests
[1695247011.979992] [nc10316:3827957:0]          mpool.c:42   UCX  WARN  object 0xb815800 was not returned to mpool ucp_requests
[1695247011.979994] [nc10316:3827957:0]          mpool.c:42   UCX  WARN  object 0xb8159c0 was not returned to mpool ucp_requests
[1695247011.980073] [nc10316:3827952:0]          mpool.c:42   UCX  WARN  object 0xb26eec0 was not returned to mpool ucp_requests
[1695247011.980084] [nc10316:3827952:0]          mpool.c:42   UCX  WARN  object 0xb26f080 was not returned to mpool ucp_requests
[1695247011.980088] [nc10316:3827952:0]          mpool.c:42   UCX  WARN  object 0xb26f240 was not returned to mpool ucp_requests
[1695247011.980092] [nc10316:3827952:0]          mpool.c:42   UCX  WARN  object 0xb26f400 was not returned to mpool ucp_requests
[1695247011.980096] [nc10316:3827952:0]          mpool.c:42   UCX  WARN  object 0xb26f5c0 was not returned to mpool ucp_requests
[1695247011.980099] [nc10316:3827952:0]          mpool.c:42   UCX  WARN  object 0xb26f780 was not returned to mpool ucp_requests
[1695247011.980102] [nc10316:3827952:0]          mpool.c:42   UCX  WARN  object 0xb26f940 was not returned to mpool ucp_requests
[1695247011.980262] [nc10316:3827954:0]          mpool.c:42   UCX  WARN  object 0xbde5140 was not returned to mpool ucp_requests
[1695247011.980273] [nc10316:3827954:0]          mpool.c:42   UCX  WARN  object 0xbde5300 was not returned to mpool ucp_requests
[1695247011.980276] [nc10316:3827954:0]          mpool.c:42   UCX  WARN  object 0xbde54c0 was not returned to mpool ucp_requests
[1695247011.980279] [nc10316:3827954:0]          mpool.c:42   UCX  WARN  object 0xbde5680 was not returned to mpool ucp_requests
[1695247011.980282] [nc10316:3827954:0]          mpool.c:42   UCX  WARN  object 0xbde5840 was not returned to mpool ucp_requests
[1695247011.980284] [nc10316:3827954:0]          mpool.c:42   UCX  WARN  object 0xbde5a00 was not returned to mpool ucp_requests
[1695247011.980286] [nc10316:3827954:0]          mpool.c:42   UCX  WARN  object 0xbde5bc0 was not returned to mpool ucp_requests
[1695247011.980289] [nc10316:3827954:0]          mpool.c:42   UCX  WARN  object 0xbde5d80 was not returned to mpool ucp_requests
[1695247011.980291] [nc10316:3827954:0]          mpool.c:42   UCX  WARN  object 0xbde5f40 was not returned to mpool ucp_requests
[1695247011.980293] [nc10316:3827954:0]          mpool.c:42   UCX  WARN  object 0xbde6100 was not returned to mpool ucp_requests


           ************************************************************
           *        Program running with 8 parallel MPI-processes     *
           *              working on a common directory               *
           ************************************************************
-------------------------------------------------------------------------------
                                 ORCA SCF
-------------------------------------------------------------------------------

------------
SCF SETTINGS
------------
Hamiltonian:
 Density Functional     Method          .... DFT(GTOs)
 Exchange Functional    Exchange        .... WB97X-D3
 Correlation Functional Correlation     .... WB97X-D3
 Gradients option       PostSCFGGA      .... off
 Hybrid DFT is turned on
   Fraction HF Exchange ScalHFX         ....  0.195728
   Scaling of DF-GGA-X  ScalDFX         ....  0.000000
   Scaling of DF-GGA-C  ScalDFC         ....  1.000000
   Scaling of DF-LDA-C  ScalLDAC        ....  1.000000
   Perturbative correction              ....  0.000000
   Density functional embedding theory  .... OFF
 Long-range corrected/Screened/Range-Separated Hybrid DFT is turned on
   Amount of maximum screened exact exchange              ....  0.804272
   Range separation parameter mu (erf(mu*r12)/r12)        ....  0.250000
 RI-approximation to the Coulomb term is turned on
   Number of AuxJ basis functions       .... 1287
   RIJ-COSX (HFX calculated with COS-X)).... on


General Settings:
 Integral files         IntName         .... Fluoxetine_18
 Hartree-Fock type      HFTyp           .... RHF
 Total Charge           Charge          ....    1
 Multiplicity           Mult            ....    1
 Number of Electrons    NEL             ....  162
 Basis Dimension        Dim             ....  948
 Nuclear Repulsion      ENuc            ....   1822.4404930683 Eh

Convergence Acceleration:
 DIIS                   CNVDIIS         .... on
   Start iteration      DIISMaxIt       ....    12
   Startup error        DIISStart       ....  0.200000
   # of expansion vecs  DIISMaxEq       ....     5
   Bias factor          DIISBfac        ....   1.050
   Max. coefficient     DIISMaxC        ....  10.000
 Trust-Rad. Augm. Hess. CNVTRAH         .... auto
   Auto Start mean grad. ratio tolernc. ....  1.125000
   Auto Start start iteration           ....    20
   Auto Start num. interpolation iter.  ....    10
   Max. Number of Micro iterations      ....    16
   Max. Number of Macro iterations      .... Maxiter - #DIIS iter
   Number of Davidson start vectors     ....     2
   Converg. threshold I  (grad. norm)   ....   1.000e-05
   Converg. threshold II (energy diff.) ....   1.000e-08
   Grad. Scal. Fac. for Micro threshold ....   0.100
   Minimum threshold for Micro iter.    ....   0.010
   NR start threshold (gradient norm)   ....   0.001
   Initial trust radius                 ....   0.400
   Minimum AH scaling param. (alpha)    ....   1.000
   Maximum AH scaling param. (alpha)    .... 1000.000
   Orbital update algorithm             .... Taylor
   White noise on init. David. guess    .... on
   Maximum white noise                  ....   0.010
   Quad. conv. algorithm                .... NR
 SOSCF                  CNVSOSCF        .... on
   Start iteration      SOSCFMaxIt      ....   150
   Startup grad/error   SOSCFStart      ....  0.003300
 Level Shifting         CNVShift        .... on
   Level shift para.    LevelShift      ....    0.2500
   Turn off err/grad.   ShiftErr        ....    0.0010
 Zerner damping         CNVZerner       .... off
 Static damping         CNVDamp         .... on
   Fraction old density DampFac         ....    0.7000
   Max. Damping (<1)    DampMax         ....    0.9800
   Min. Damping (>=0)   DampMin         ....    0.0000
   Turn off err/grad.   DampErr         ....    0.1000
 Fernandez-Rico         CNVRico         .... off

SCF Procedure:
 Maximum # iterations   MaxIter         ....   125
 SCF integral mode      SCFMode         .... Direct
   Integral package                     .... SHARK and LIBINT hybrid scheme
 Reset frequency        DirectResetFreq ....    20
 Integral Threshold     Thresh          ....  2.500e-11 Eh
 Primitive CutOff       TCut            ....  2.500e-12 Eh

Convergence Tolerance:
 Convergence Check Mode ConvCheckMode   .... Total+1el-Energy
 Convergence forced     ConvForced      .... 0
 Energy Change          TolE            ....  1.000e-08 Eh
 1-El. energy change                    ....  1.000e-05 Eh
 Orbital Gradient       TolG            ....  1.000e-05
 Orbital Rotation angle TolX            ....  1.000e-05
 DIIS Error             TolErr          ....  5.000e-07


Diagonalization of the overlap matrix:
Smallest eigenvalue                        ... 6.282e-06
Time for diagonalization                   ...    0.207 sec
Threshold for overlap eigenvalues          ... 1.000e-08
Number of eigenvalues below threshold      ... 0
Time for construction of square roots      ...    0.105 sec
Total time needed                          ...    0.316 sec

Time for model grid setup =    0.293 sec

------------------------------
INITIAL GUESS: MODEL POTENTIAL
------------------------------
Loading Hartree-Fock densities                     ... done
Calculating cut-offs                               ... done
Initializing the effective Hamiltonian             ... done
Setting up the integral package (SHARK)            ... done
Starting the Coulomb interaction                   ... done (   0.7 sec)
Reading the grid                                   ... done
Mapping shells                                     ... done
Starting the XC term evaluation                    ... done (   0.3 sec)
  promolecular density results
     # of electrons  =    162.994967785
     EX              =   -137.405381916
     EC              =     -5.523865727
     EX+EC           =   -142.929247643
Transforming the Hamiltonian                       ... done (   0.1 sec)
Diagonalizing the Hamiltonian                      ... done (   0.2 sec)
Back transforming the eigenvectors                 ... done (   0.0 sec)
Now organizing SCF variables                       ... done
                      ------------------
                      INITIAL GUESS DONE (   1.6 sec)
                      ------------------
-------------------
DFT GRID GENERATION
-------------------

General Integration Accuracy     IntAcc      ... 4.959
Radial Grid Type                 RadialGrid  ... OptM3 with GC (2021)
Angular Grid (max. ang.)         AngularGrid ... 6 (Lebedev-590)
Angular grid pruning method      GridPruning ... 4 (adaptive)
Weight generation scheme         WeightScheme... Becke
Basis function cutoff            BFCut       ... 1.0000e-11
Integration weight cutoff        WCut        ... 1.0000e-14
Angular grids for H and He will be reduced by one unit
Partially contracted basis set               ... off
Rotationally invariant grid construction     ... off

Total number of grid points                  ...   472364
Total number of batches                      ...     7401
Average number of points per batch           ...       63
Average number of grid points per atom       ...    11521
Time for grid setup =    6.378 sec

--------------------
COSX GRID GENERATION
--------------------

GRIDX 1
-------
General Integration Accuracy     IntAcc      ... 4.020
Radial Grid Type                 RadialGrid  ... OptM3 with GC (2021)
Angular Grid (max. ang.)         AngularGrid ... 2 (Lebedev-110)
Angular grid pruning method      GridPruning ... 4 (adaptive)
Weight generation scheme         WeightScheme... Becke
Basis function cutoff            BFCut       ... 1.0000e-11
Integration weight cutoff        WCut        ... 1.0000e-14
Angular grids for H and He will be reduced by one unit
Partially contracted basis set               ... on
Rotationally invariant grid construction     ... off

Total number of grid points                  ...    52534
Total number of batches                      ...      841
Average number of points per batch           ...       62
Average number of grid points per atom       ...     1281
UseSFitting                                  ... on

GRIDX 2
-------
General Integration Accuracy     IntAcc      ... 4.338
Radial Grid Type                 RadialGrid  ... OptM3 with GC (2021)
Angular Grid (max. ang.)         AngularGrid ... 3 (Lebedev-194)
Angular grid pruning method      GridPruning ... 4 (adaptive)
Weight generation scheme         WeightScheme... Becke
Basis function cutoff            BFCut       ... 1.0000e-11
Integration weight cutoff        WCut        ... 1.0000e-14
Angular grids for H and He will be reduced by one unit
Partially contracted basis set               ... on
Rotationally invariant grid construction     ... off

Total number of grid points                  ...   114708
Total number of batches                      ...     1814
Average number of points per batch           ...       63
Average number of grid points per atom       ...     2798
UseSFitting                                  ... on

GRIDX 3
-------
General Integration Accuracy     IntAcc      ... 4.871
Radial Grid Type                 RadialGrid  ... OptM3 with GC (2021)
Angular Grid (max. ang.)         AngularGrid ... 4 (Lebedev-302)
Angular grid pruning method      GridPruning ... 4 (adaptive)
Weight generation scheme         WeightScheme... Becke
Basis function cutoff            BFCut       ... 1.0000e-11
Integration weight cutoff        WCut        ... 1.0000e-14
Angular grids for H and He will be reduced by one unit
Partially contracted basis set               ... on
Rotationally invariant grid construction     ... off

Total number of grid points                  ...   215468
Total number of batches                      ...     3388
Average number of points per batch           ...       63
Average number of grid points per atom       ...     5255
UseSFitting                                  ... on

Time for X-Grid setup             =    3.637 sec

--------------
SCF ITERATIONS
--------------
ITER       Energy         Delta-E        Max-DP      RMS-DP      [F,P]     Damp
               ***  Starting incremental Fock matrix formation  ***
  0  -1088.2380995396   0.000000000000 0.03230698  0.00040047  0.1546885 0.7000
  1  -1088.4058391274  -0.167739587795 0.03605426  0.00033402  0.0844398 0.7000
                               ***Turning on DIIS***
  2  -1088.4926336346  -0.086794507218 0.08421818  0.00076508  0.0446679 0.0000
  3  -1088.6381161350  -0.145482500380 0.01619900  0.00019762  0.0404505 0.0000
  4  -1088.6573968838  -0.019280748855 0.00660389  0.00007841  0.0062549 0.0000
  5  -1088.6578532735  -0.000456389652 0.00206565  0.00002927  0.0042197 0.0000
                      *** Initiating the SOSCF procedure ***
                           *** Shutting down DIIS ***
                      *** Re-Reading the Fockian *** 
                      *** Removing any level shift *** 
ITER      Energy       Delta-E        Grad      Rot      Max-DP    RMS-DP
  6  -1088.65793987  -0.0000865925  0.000395  0.000395  0.001030  0.000015
               *** Restarting incremental Fock matrix formation ***
  7  -1088.65795985  -0.0000199866  0.000312  0.000794  0.000684  0.000011
  8  -1088.65796340  -0.0000035477  0.000090  0.000342  0.000668  0.000008
  9  -1088.65796436  -0.0000009607  0.000030  0.000057  0.000284  0.000004
 10  -1088.65796455  -0.0000001903  0.000013  0.000029  0.000207  0.000002
 11  -1088.65796457  -0.0000000223  0.000006  0.000019  0.000163  0.000002
 12  -1088.65796458  -0.0000000039  0.000003  0.000012  0.000245  0.000002
                  ***Gradient check signals convergence***
              ***Rediagonalizing the Fockian in SOSCF/NRSCF***

               *****************************************************
               *                     SUCCESS                       *
               *           SCF CONVERGED AFTER  13 CYCLES          *
               *****************************************************

Old exchange energy                            =    -44.809806516 Eh
New exchange energy                            =    -44.809804960 Eh
Exchange energy change after final integration =      0.000001556 Eh
Total energy after final integration           =  -1088.657963022 Eh
Final COS-X integration done in                =    96.493 sec

----------------
TOTAL SCF ENERGY
----------------

Total Energy       :        -1088.65796302 Eh          -29623.88922 eV

Components:
Nuclear Repulsion  :         1822.44049307 Eh           49591.12698 eV
Electronic Energy  :        -2911.09845609 Eh          -79215.01620 eV
One Electron Energy:        -5088.44387141 Eh         -138463.59709 eV
Two Electron Energy:         2177.34541532 Eh           59248.58089 eV
Max COSX asymmetry :            0.00000039 Eh               0.00001 eV

Virial components:
Potential Energy   :        -2172.85219126 Eh          -59126.31405 eV
Kinetic Energy     :         1084.19422823 Eh           29502.42482 eV
Virial Ratio       :            2.00411710


DFT components:
N(Alpha)           :       80.999973276110 electrons
N(Beta)            :       80.999973276110 electrons
N(Total)           :      161.999946552221 electrons
E(XC)              :     -101.244295159309 Eh       
DFET-embed. en.    :        0.000000000000 Eh       

---------------
SCF CONVERGENCE
---------------

  Last Energy change         ...   -9.6725e-10  Tolerance :   1.0000e-08
  Last MAX-Density change    ...    1.6653e-15  Tolerance :   1.0000e-07
  Last RMS-Density change    ...    1.0656e-17  Tolerance :   5.0000e-09
  Last Orbital Gradient      ...    1.6165e-06  Tolerance :   1.0000e-05
  Last Orbital Rotation      ...    4.3871e-06  Tolerance :   1.0000e-05

             **** THE GBW FILE WAS UPDATED (Fluoxetine_18.gbw) ****
             **** DENSITY Fluoxetine_18.scfp WAS UPDATED ****
             **** ENERGY FILE WAS UPDATED (Fluoxetine_18.en.tmp) ****
             **** THE GBW FILE WAS UPDATED (Fluoxetine_18.gbw) ****
             **** DENSITY Fluoxetine_18.scfp WAS UPDATED ****
----------------
ORBITAL ENERGIES
----------------

  NO   OCC          E(Eh)            E(eV) 
   0   2.0000     -24.896229      -677.4608 
   1   2.0000     -24.896194      -677.4599 
   2   2.0000     -24.889878      -677.2880 
   3   2.0000     -19.422749      -528.5199 
   4   2.0000     -14.698861      -399.9764 
   5   2.0000     -10.612769      -288.7881 
   6   2.0000     -10.493877      -285.5529 
   7   2.0000     -10.491182      -285.4796 
   8   2.0000     -10.487267      -285.3730 
   9   2.0000     -10.481305      -285.2108 
  10   2.0000     -10.443218      -284.1744 
  11   2.0000     -10.417401      -283.4719 
  12   2.0000     -10.411535      -283.3123 
  13   2.0000     -10.410927      -283.2957 
  14   2.0000     -10.410346      -283.2799 
  15   2.0000     -10.409324      -283.2521 
  16   2.0000     -10.406699      -283.1807 
  17   2.0000     -10.401986      -283.0524 
  18   2.0000     -10.400236      -283.0048 
  19   2.0000     -10.395443      -282.8744 
  20   2.0000     -10.394514      -282.8491 
  21   2.0000     -10.390692      -282.7451 
  22   2.0000      -1.514793       -41.2196 
  23   2.0000      -1.424491       -38.7624 
  24   2.0000      -1.417602       -38.5749 
  25   2.0000      -1.343815       -36.5671 
  26   2.0000      -1.286202       -34.9993 
  27   2.0000      -1.120613       -30.4934 
  28   2.0000      -1.105532       -30.0831 
  29   2.0000      -1.075237       -29.2587 
  30   2.0000      -1.026267       -27.9262 
  31   2.0000      -1.006033       -27.3756 
  32   2.0000      -0.999164       -27.1886 
  33   2.0000      -0.990183       -26.9442 
  34   2.0000      -0.984679       -26.7945 
  35   2.0000      -0.949141       -25.8274 
  36   2.0000      -0.911868       -24.8132 
  37   2.0000      -0.891489       -24.2586 
  38   2.0000      -0.867144       -23.5962 
  39   2.0000      -0.860732       -23.4217 
  40   2.0000      -0.842343       -22.9213 
  41   2.0000      -0.831795       -22.6343 
  42   2.0000      -0.814227       -22.1562 
  43   2.0000      -0.800960       -21.7952 
  44   2.0000      -0.787009       -21.4156 
  45   2.0000      -0.779684       -21.2163 
  46   2.0000      -0.778208       -21.1761 
  47   2.0000      -0.766108       -20.8469 
  48   2.0000      -0.760530       -20.6951 
  49   2.0000      -0.745426       -20.2841 
  50   2.0000      -0.721028       -19.6202 
  51   2.0000      -0.707745       -19.2587 
  52   2.0000      -0.693741       -18.8777 
  53   2.0000      -0.680761       -18.5245 
  54   2.0000      -0.679675       -18.4949 
  55   2.0000      -0.675724       -18.3874 
  56   2.0000      -0.674089       -18.3429 
  57   2.0000      -0.666633       -18.1400 
  58   2.0000      -0.656566       -17.8661 
  59   2.0000      -0.654360       -17.8061 
  60   2.0000      -0.653026       -17.7697 
  61   2.0000      -0.650035       -17.6883 
  62   2.0000      -0.644441       -17.5361 
  63   2.0000      -0.639690       -17.4069 
  64   2.0000      -0.635631       -17.2964 
  65   2.0000      -0.621634       -16.9155 
  66   2.0000      -0.617948       -16.8152 
  67   2.0000      -0.609472       -16.5846 
  68   2.0000      -0.608118       -16.5477 
  69   2.0000      -0.597145       -16.2491 
  70   2.0000      -0.591196       -16.0873 
  71   2.0000      -0.586652       -15.9636 
  72   2.0000      -0.564533       -15.3617 
  73   2.0000      -0.562284       -15.3005 
  74   2.0000      -0.562005       -15.2929 
  75   2.0000      -0.553254       -15.0548 
  76   2.0000      -0.547875       -14.9084 
  77   2.0000      -0.473191       -12.8762 
  78   2.0000      -0.462828       -12.5942 
  79   2.0000      -0.456444       -12.4205 
  80   2.0000      -0.449590       -12.2340 
  81   0.0000      -0.069077        -1.8797 
  82   0.0000      -0.064150        -1.7456 
  83   0.0000      -0.062300        -1.6953 
  84   0.0000      -0.056753        -1.5443 
  85   0.0000      -0.050989        -1.3875 
  86   0.0000      -0.014780        -0.4022 
  87   0.0000      -0.003890        -0.1058 
  88   0.0000       0.004641         0.1263 
  89   0.0000       0.013977         0.3803 
  90   0.0000       0.017177         0.4674 
  91   0.0000       0.023220         0.6318 
  92   0.0000       0.029337         0.7983 
  93   0.0000       0.041170         1.1203 
  94   0.0000       0.044519         1.2114 
  95   0.0000       0.050847         1.3836 
  96   0.0000       0.056028         1.5246 
  97   0.0000       0.065433         1.7805 
  98   0.0000       0.072030         1.9600 
  99   0.0000       0.077705         2.1144 
 100   0.0000       0.083788         2.2800 
 101   0.0000       0.088329         2.4035 
 102   0.0000       0.094384         2.5683 
 103   0.0000       0.095867         2.6087 
 104   0.0000       0.101695         2.7673 
 105   0.0000       0.107406         2.9227 
 106   0.0000       0.110197         2.9986 
 107   0.0000       0.113211         3.0806 
 108   0.0000       0.120848         3.2884 
 109   0.0000       0.124702         3.3933 
 110   0.0000       0.133934         3.6445 
 111   0.0000       0.139285         3.7901 
 112   0.0000       0.140786         3.8310 
 113   0.0000       0.146111         3.9759 
 114   0.0000       0.149246         4.0612 
 115   0.0000       0.151165         4.1134 
 116   0.0000       0.155197         4.2231 
 117   0.0000       0.160111         4.3569 
 118   0.0000       0.164003         4.4628 
 119   0.0000       0.170153         4.6301 
 120   0.0000       0.180324         4.9069 
 121   0.0000       0.186807         5.0833 
 122   0.0000       0.188685         5.1344 
 123   0.0000       0.197387         5.3712 
 124   0.0000       0.198559         5.4031 
 125   0.0000       0.199464         5.4277 
 126   0.0000       0.207536         5.6473 
 127   0.0000       0.211939         5.7672 
 128   0.0000       0.212557         5.7840 
 129   0.0000       0.217421         5.9163 
 130   0.0000       0.223268         6.0754 
 131   0.0000       0.229003         6.2315 
 132   0.0000       0.230912         6.2834 
 133   0.0000       0.238091         6.4788 
 134   0.0000       0.244286         6.6474 
 135   0.0000       0.248722         6.7681 
 136   0.0000       0.252806         6.8792 
 137   0.0000       0.259324         7.0566 
 138   0.0000       0.262797         7.1511 
 139   0.0000       0.270648         7.3647 
 140   0.0000       0.272201         7.4070 
 141   0.0000       0.274796         7.4776 
 142   0.0000       0.286842         7.8054 
 143   0.0000       0.294841         8.0230 
 144   0.0000       0.295500         8.0410 
 145   0.0000       0.296665         8.0727 
 146   0.0000       0.299568         8.1517 
 147   0.0000       0.308419         8.3925 
 148   0.0000       0.314039         8.5454 
 149   0.0000       0.316093         8.6013 
 150   0.0000       0.321478         8.7479 
 151   0.0000       0.323199         8.7947 
 152   0.0000       0.330444         8.9918 
 153   0.0000       0.332965         9.0604 
 154   0.0000       0.336620         9.1599 
 155   0.0000       0.338607         9.2140 
 156   0.0000       0.344513         9.3747 
 157   0.0000       0.347596         9.4586 
 158   0.0000       0.349794         9.5184 
 159   0.0000       0.352396         9.5892 
 160   0.0000       0.357126         9.7179 
 161   0.0000       0.359729         9.7887 
 162   0.0000       0.366409         9.9705 
 163   0.0000       0.368670        10.0320 
 164   0.0000       0.373020        10.1504 
[...]
 11:     76.96   0.000127    0.64  0.000515  ( 0.014705 -0.016613  0.004721)
 12:     88.68   0.000041    0.21  0.000145  ( 0.011639 -0.000905 -0.002922)
 13:    102.94   0.000126    0.64  0.000382  (-0.002628  0.017961 -0.007221)
 14:    129.38   0.000702    3.55  0.001693  ( 0.039664  0.001562  0.010853)
 15:    162.27   0.000261    1.32  0.000501  (-0.018166  0.006255  0.011484)
 16:    177.59   0.001212    6.12  0.002129  ( 0.014274 -0.041995  0.012726)
 17:    190.78   0.000691    3.49  0.001130  (-0.026041  0.016134 -0.013827)
 18:    215.19   0.000242    1.23  0.000352  (-0.014465 -0.009988  0.006523)
 19:    236.16   0.002602   13.15  0.003438  (-0.032222  0.048300 -0.008167)
 20:    268.01   0.004206   21.26  0.004897  (-0.037704  0.057079 -0.014758)
 21:    282.64   0.000948    4.79  0.001047  (-0.021718  0.022177 -0.009125)
 22:    344.06   0.000605    3.06  0.000548  ( 0.001081  0.021093  0.010111)
 23:    354.36   0.001246    6.30  0.001098  (-0.023373  0.020323 -0.011757)
 24:    375.36   0.000525    2.65  0.000437  ( 0.012209  0.016446 -0.004135)
 25:    403.40   0.000398    2.01  0.000308  (-0.008361 -0.002824 -0.015176)
 26:    416.94   0.000079    0.40  0.000059  ( 0.005485 -0.004631  0.002703)
 27:    418.12   0.000025    0.12  0.000018  ( 0.002291  0.002297 -0.002789)
 28:    425.36   0.000323    1.63  0.000237  (-0.009296  0.004005 -0.011601)
 29:    432.35   0.000007    0.03  0.000005  (-0.000955  0.000890 -0.001776)
 30:    486.34   0.001100    5.56  0.000706  ( 0.025988 -0.002413  0.004935)
 31:    506.77   0.001177    5.95  0.000725  ( 0.019099 -0.018715  0.003128)
 32:    524.92   0.000859    4.34  0.000511  ( 0.012946 -0.018528  0.000200)
 33:    570.78   0.001031    5.21  0.000564  ( 0.019352 -0.013368  0.003227)
 34:    585.93   0.000047    0.24  0.000025  ( 0.004926 -0.000770  0.000521)
 35:    610.69   0.002588   13.08  0.001322  (-0.016441  0.032418  0.001094)
 36:    631.38   0.002185   11.04  0.001080  ( 0.023263  0.022807  0.004289)
 37:    637.96   0.000147    0.74  0.000072  ( 0.001143  0.005473  0.006390)
 38:    654.92   0.001056    5.34  0.000503  ( 0.020793  0.008390 -0.000605)
 39:    684.60   0.004441   22.44  0.002024  ( 0.044098  0.008077  0.003783)
 40:    733.60   0.007120   35.98  0.003029  ( 0.031064 -0.044875  0.007059)
 41:    766.43   0.000892    4.51  0.000363  (-0.011987  0.014804 -0.000645)
 42:    772.28   0.000150    0.76  0.000061  (-0.005204  0.001037 -0.005710)
 43:    778.68   0.010618   53.66  0.004255  (-0.028145  0.057715 -0.011496)
 44:    803.99   0.000596    3.01  0.000231  ( 0.011688  0.005848  0.007787)
 45:    824.83   0.002933   14.82  0.001110  (-0.007450  0.032448  0.001128)
 46:    841.19   0.006706   33.89  0.002488  (-0.034693  0.035271 -0.006331)
 47:    852.98   0.000381    1.93  0.000140  (-0.008596 -0.007612 -0.002773)
 48:    875.45   0.010027   50.67  0.003574  ( 0.005295 -0.059534  0.001349)
 49:    881.83   0.002858   14.44  0.001011  (-0.018737  0.025311  0.004447)
 50:    886.59   0.000146    0.74  0.000051  (-0.005207 -0.003689  0.003250)
 51:    910.71   0.003149   15.91  0.001079  (-0.030880 -0.001511 -0.011096)
 52:    961.93   0.000560    2.83  0.000182  (-0.001350 -0.012414 -0.005059)
 53:    970.35   0.000730    3.69  0.000235  (-0.000889  0.009794 -0.011749)
 54:   1001.87   0.000840    4.25  0.000262  ( 0.002438  0.015963  0.000993)
 55:   1009.28   0.000879    4.44  0.000272  (-0.016355 -0.000975 -0.001824)
 56:   1020.57   0.000106    0.54  0.000032  (-0.004936  0.002429  0.001484)
 57:   1026.90   0.000224    1.13  0.000068  ( 0.005089  0.006236 -0.001776)
 58:   1030.64   0.000729    3.68  0.000221  (-0.012526 -0.007921 -0.001008)
 59:   1038.21   0.004447   22.47  0.001337  (-0.035318 -0.009361 -0.001315)
 60:   1052.76   0.003548   17.93  0.001052  (-0.024481 -0.012151  0.017460)
 61:   1053.75   0.004146   20.95  0.001228  (-0.028262 -0.011542  0.017197)
 62:   1068.09   0.005827   29.45  0.001702  ( 0.035785  0.018541 -0.008833)
 63:   1080.06   0.002284   11.54  0.000660  (-0.013548 -0.016053  0.014790)
 64:   1086.06   0.014592   73.74  0.004193  (-0.062306 -0.010336  0.014283)
 65:   1109.01   0.017565   88.77  0.004943  ( 0.063474  0.028238  0.010790)
 66:   1129.01   0.000493    2.49  0.000136  ( 0.002774 -0.000386  0.011337)
 67:   1146.53   0.007220   36.49  0.001965  (-0.005667  0.002633 -0.043887)
 68:   1170.20   0.000939    4.75  0.000251  (-0.009798 -0.002133  0.012245)
 69:   1177.42   0.005702   28.82  0.001511  ( 0.037873  0.004642 -0.007444)
 70:   1184.27   0.049642  250.87  0.013081  (-0.025341  0.111504 -0.002354)
 71:   1191.62   0.000332    1.68  0.000087  ( 0.008443  0.002047 -0.003369)
 72:   1210.01   0.015038   76.00  0.003878  (-0.054774 -0.000257  0.029632)
 73:   1218.45   0.012067   60.98  0.003090  (-0.022100 -0.008518  0.050294)
 74:   1220.40   0.019841  100.27  0.005074  (-0.003667  0.003154  0.071065)
 75:   1237.62   0.006570   33.20  0.001657  (-0.039862 -0.007937 -0.002175)
 76:   1271.33   0.021098  106.62  0.005179  ( 0.070795  0.007780  0.010304)
 77:   1282.79   0.044837  226.59  0.010907  (-0.100740 -0.027374  0.003095)
 78:   1309.59   0.002720   13.74  0.000648  (-0.015168  0.018458  0.008791)
 79:   1326.90   0.003239   16.37  0.000762  (-0.016562 -0.013043 -0.017812)
 80:   1343.06   0.001578    7.98  0.000367  (-0.001477 -0.001684  0.019018)
 81:   1347.58   0.017780   89.85  0.004117  (-0.061189 -0.016056 -0.010752)
 82:   1352.54   0.015278   77.21  0.003525  (-0.058632 -0.006732 -0.006475)
 83:   1360.54   0.046945  237.24  0.010768  (-0.100598 -0.025395  0.001665)
 84:   1367.17   0.001727    8.73  0.000394  ( 0.016459  0.008246  0.007433)
 85:   1387.81   0.000759    3.83  0.000171  ( 0.010292 -0.001951 -0.007803)
 86:   1391.92   0.004822   24.37  0.001081  (-0.031113 -0.010606  0.000758)
 87:   1411.47   0.005133   25.94  0.001135  (-0.031478 -0.010237 -0.006264)
 88:   1453.24   0.000986    4.98  0.000212  (-0.014480 -0.001301  0.000615)
 89:   1468.45   0.002651   13.40  0.000563  ( 0.002354  0.021746 -0.009216)
 90:   1472.91   0.002176   11.00  0.000461  (-0.002744  0.001364 -0.021252)
 91:   1484.07   0.005074   25.64  0.001067  (-0.005995 -0.029001 -0.013779)
 92:   1489.51   0.004296   21.71  0.000900  (-0.005283 -0.024207  0.016914)
 93:   1502.48   0.004442   22.45  0.000923  ( 0.007814 -0.000299 -0.029349)
 94:   1504.31   0.001387    7.01  0.000288  (-0.008850  0.003161  0.014121)
 95:   1510.12   0.006245   31.56  0.001290  ( 0.008502  0.024813 -0.024546)
 96:   1513.41   0.005650   28.55  0.001165  (-0.032199  0.011250 -0.001275)
 97:   1553.93   0.002163   10.93  0.000434  ( 0.015890  0.011917  0.006311)
 98:   1572.26   0.020479  103.49  0.004065  ( 0.062300  0.013543  0.000162)
 99:   1637.05   0.011442   57.82  0.002181  (-0.032338 -0.004483 -0.033395)
100:   1669.22   0.001915    9.68  0.000358  ( 0.008034  0.000614  0.017120)
101:   1674.77   0.002904   14.68  0.000541  ( 0.015877  0.002847  0.016762)
102:   1690.18   0.000623    3.15  0.000115  ( 0.007842  0.007181 -0.001371)
103:   1703.56   0.019545   98.77  0.003580  ( 0.058141  0.011217 -0.008612)
104:   3092.65   0.001067    5.39  0.000108  (-0.004069 -0.009349  0.001928)
105:   3099.43   0.000771    3.90  0.000078  ( 0.005504 -0.004148  0.005492)
106:   3102.03   0.000675    3.41  0.000068  ( 0.003840  0.004931  0.005371)
107:   3107.16   0.001332    6.73  0.000134  ( 0.007001 -0.009207  0.000055)
108:   3143.86   0.001136    5.74  0.000113  (-0.009241 -0.005118 -0.001071)
109:   3166.32   0.000533    2.70  0.000053  (-0.000319 -0.007181 -0.000951)
110:   3186.64   0.000966    4.88  0.000095  (-0.004454 -0.004425 -0.007425)
111:   3200.54   0.000442    2.24  0.000043  (-0.004762  0.004475 -0.000653)
112:   3205.50   0.000118    0.60  0.000012  ( 0.002136 -0.001513  0.002163)
113:   3207.71   0.000687    3.47  0.000067  ( 0.007799 -0.000849  0.002303)
114:   3208.25   0.000124    0.63  0.000012  (-0.002723 -0.002133 -0.000327)
115:   3217.96   0.000343    1.74  0.000033  ( 0.002227  0.003010  0.004392)
116:   3225.92   0.001134    5.73  0.000110  ( 0.005350  0.003277 -0.008384)
117:   3228.81   0.000041    0.21  0.000004  ( 0.001750 -0.000802  0.000507)
118:   3229.33   0.000419    2.12  0.000040  ( 0.005789  0.001388 -0.002244)
119:   3233.61   0.000424    2.14  0.000041  ( 0.004411  0.002959  0.003568)
120:   3242.97   0.000928    4.69  0.000089  ( 0.009115  0.002333  0.000904)
121:   3302.70   0.056086  283.44  0.005299  ( 0.041670 -0.059615  0.003013)
122:   3535.91   0.016682   84.31  0.001472  ( 0.025232 -0.016294  0.023878)

* The epsilon (eps) is given for a Dirac delta lineshape.
** The dipole moment derivative (T) already includes vibrational overlap.

The first frequency considered to be a vibration is 6
The total number of vibrations considered is 117


--------------------------
THERMOCHEMISTRY AT 298.15K
--------------------------

Temperature         ... 298.15 K
Pressure            ... 1.00 atm
Total Mass          ... 310.34 AMU

Throughout the following assumptions are being made:
  (1) The electronic state is orbitally nondegenerate
  (2) There are no thermally accessible electronically excited states
  (3) Hindered rotations indicated by low frequency modes are not
      treated as such but are treated as vibrations and this may
      cause some error
  (4) All equations used are the standard statistical mechanics
      equations for an ideal gas
  (5) All vibrations are strictly harmonic

freq.       6.62  E(vib)   ...       0.58 
freq.      22.52  E(vib)   ...       0.56 
freq.      36.98  E(vib)   ...       0.54 
freq.      39.18  E(vib)   ...       0.54 
freq.      51.89  E(vib)   ...       0.52 
freq.      76.96  E(vib)   ...       0.49 
freq.      88.68  E(vib)   ...       0.47 
freq.     102.94  E(vib)   ...       0.46 
freq.     129.38  E(vib)   ...       0.43 
freq.     162.27  E(vib)   ...       0.39 
freq.     177.59  E(vib)   ...       0.37 
freq.     190.78  E(vib)   ...       0.36 
freq.     215.19  E(vib)   ...       0.34 
freq.     236.16  E(vib)   ...       0.32 
freq.     268.01  E(vib)   ...       0.29 
freq.     282.64  E(vib)   ...       0.28 
freq.     344.06  E(vib)   ...       0.23 
freq.     354.36  E(vib)   ...       0.22 
freq.     375.36  E(vib)   ...       0.21 
freq.     403.40  E(vib)   ...       0.19 
freq.     416.94  E(vib)   ...       0.18 
freq.     418.12  E(vib)   ...       0.18 
freq.     425.36  E(vib)   ...       0.18 
freq.     432.35  E(vib)   ...       0.18 
freq.     486.34  E(vib)   ...       0.15 
freq.     506.77  E(vib)   ...       0.14 
freq.     524.92  E(vib)   ...       0.13 
freq.     570.78  E(vib)   ...       0.11 
freq.     585.93  E(vib)   ...       0.11 
freq.     610.69  E(vib)   ...       0.10 
freq.     631.38  E(vib)   ...       0.09 
freq.     637.96  E(vib)   ...       0.09 
freq.     654.92  E(vib)   ...       0.08 
freq.     684.60  E(vib)   ...       0.07 
freq.     733.60  E(vib)   ...       0.06 
freq.     766.43  E(vib)   ...       0.06 
freq.     772.28  E(vib)   ...       0.05 
freq.     778.68  E(vib)   ...       0.05 
freq.     803.99  E(vib)   ...       0.05 
freq.     824.83  E(vib)   ...       0.04 
freq.     841.19  E(vib)   ...       0.04 
freq.     852.98  E(vib)   ...       0.04 
freq.     875.45  E(vib)   ...       0.04 
freq.     881.83  E(vib)   ...       0.04 
freq.     886.59  E(vib)   ...       0.04 
freq.     910.71  E(vib)   ...       0.03 
freq.     961.93  E(vib)   ...       0.03 
freq.     970.35  E(vib)   ...       0.03 
freq.    1001.87  E(vib)   ...       0.02 
freq.    1009.28  E(vib)   ...       0.02 
freq.    1020.57  E(vib)   ...       0.02 
freq.    1026.90  E(vib)   ...       0.02 
freq.    1030.64  E(vib)   ...       0.02 
freq.    1038.21  E(vib)   ...       0.02 
freq.    1052.76  E(vib)   ...       0.02 
freq.    1053.75  E(vib)   ...       0.02 
freq.    1068.09  E(vib)   ...       0.02 
freq.    1080.06  E(vib)   ...       0.02 
freq.    1086.06  E(vib)   ...       0.02 
freq.    1109.01  E(vib)   ...       0.02 
freq.    1129.01  E(vib)   ...       0.01 
freq.    1146.53  E(vib)   ...       0.01 
freq.    1170.20  E(vib)   ...       0.01 
freq.    1177.42  E(vib)   ...       0.01 
freq.    1184.27  E(vib)   ...       0.01 
freq.    1191.62  E(vib)   ...       0.01 
freq.    1210.01  E(vib)   ...       0.01 
freq.    1218.45  E(vib)   ...       0.01 
freq.    1220.40  E(vib)   ...       0.01 
freq.    1237.62  E(vib)   ...       0.01 
freq.    1271.33  E(vib)   ...       0.01 
freq.    1282.79  E(vib)   ...       0.01 
freq.    1309.59  E(vib)   ...       0.01 
freq.    1326.90  E(vib)   ...       0.01 
freq.    1343.06  E(vib)   ...       0.01 
freq.    1347.58  E(vib)   ...       0.01 
freq.    1352.54  E(vib)   ...       0.01 
freq.    1360.54  E(vib)   ...       0.01 
freq.    1367.17  E(vib)   ...       0.01 
freq.    1387.81  E(vib)   ...       0.00 
freq.    1391.92  E(vib)   ...       0.00 
freq.    1411.47  E(vib)   ...       0.00 
freq.    1453.24  E(vib)   ...       0.00 
freq.    1468.45  E(vib)   ...       0.00 
freq.    1472.91  E(vib)   ...       0.00 
freq.    1484.07  E(vib)   ...       0.00 
freq.    1489.51  E(vib)   ...       0.00 
freq.    1502.48  E(vib)   ...       0.00 
freq.    1504.31  E(vib)   ...       0.00 
freq.    1510.12  E(vib)   ...       0.00 
freq.    1513.41  E(vib)   ...       0.00 
freq.    1553.93  E(vib)   ...       0.00 
freq.    1572.26  E(vib)   ...       0.00 
freq.    1637.05  E(vib)   ...       0.00 
freq.    1669.22  E(vib)   ...       0.00 
freq.    1674.77  E(vib)   ...       0.00 
freq.    1690.18  E(vib)   ...       0.00 
freq.    1703.56  E(vib)   ...       0.00 
freq.    3092.65  E(vib)   ...       0.00 
freq.    3099.43  E(vib)   ...       0.00 
freq.    3102.03  E(vib)   ...       0.00 
freq.    3107.16  E(vib)   ...       0.00 
freq.    3143.86  E(vib)   ...       0.00 
freq.    3166.32  E(vib)   ...       0.00 
freq.    3186.64  E(vib)   ...       0.00 
freq.    3200.54  E(vib)   ...       0.00 
freq.    3205.50  E(vib)   ...       0.00 
freq.    3207.71  E(vib)   ...       0.00 
freq.    3208.25  E(vib)   ...       0.00 
freq.    3217.96  E(vib)   ...       0.00 
freq.    3225.92  E(vib)   ...       0.00 
freq.    3228.81  E(vib)   ...       0.00 
freq.    3229.33  E(vib)   ...       0.00 
freq.    3233.61  E(vib)   ...       0.00 
freq.    3242.97  E(vib)   ...       0.00 
freq.    3302.70  E(vib)   ...       0.00 
freq.    3535.91  E(vib)   ...       0.00 

------------
INNER ENERGY
------------

The inner energy is: U= E(el) + E(ZPE) + E(vib) + E(rot) + E(trans)
    E(el)   - is the total energy from the electronic structure calculation
              = E(kin-el) + E(nuc-el) + E(el-el) + E(nuc-nuc)
    E(ZPE)  - the the zero temperature vibrational energy from the frequency calculation
    E(vib)  - the the finite temperature correction to E(ZPE) due to population
              of excited vibrational states
    E(rot)  - is the rotational thermal energy
    E(trans)- is the translational thermal energy

Summary of contributions to the inner energy U:
Electronic energy                ...  -1088.68184211 Eh
Zero point energy                ...      0.34050662 Eh     213.67 kcal/mol
Thermal vibrational correction   ...      0.01694535 Eh      10.63 kcal/mol
Thermal rotational correction    ...      0.00141627 Eh       0.89 kcal/mol
Thermal translational correction ...      0.00141627 Eh       0.89 kcal/mol
-----------------------------------------------------------------------
Total thermal energy                  -1088.32155760 Eh


Summary of corrections to the electronic energy:
(perhaps to be used in another calculation)
Total thermal correction                  0.01977789 Eh      12.41 kcal/mol
Non-thermal (ZPE) correction              0.34050662 Eh     213.67 kcal/mol
-----------------------------------------------------------------------
Total correction                          0.36028451 Eh     226.08 kcal/mol


--------
ENTHALPY
--------

The enthalpy is H = U + kB*T
                kB is Boltzmann's constant
Total free energy                 ...  -1088.32155760 Eh 
Thermal Enthalpy correction       ...      0.00094421 Eh       0.59 kcal/mol
-----------------------------------------------------------------------
Total Enthalpy                    ...  -1088.32061340 Eh


Note: Only C1 symmetry has been detected, increase convergence thresholds 
      if your molecule has a higher symmetry. Symmetry factor of 1.0 is   
      used for the rotational entropy correction. 
 

Note: Rotational entropy computed according to Herzberg 
Infrared and Raman Spectra, Chapter V,1, Van Nostrand Reinhold, 1945 
Point Group:  C1, Symmetry Number:   1  
Rotational constants in cm-1:     0.021932     0.003924     0.003752 

Vibrational entropy computed according to the QRRHO of S. Grimme
Chem.Eur.J. 2012 18 9955


-------
ENTROPY
-------

The entropy contributions are T*S = T*(S(el)+S(vib)+S(rot)+S(trans))
     S(el)   - electronic entropy
     S(vib)  - vibrational entropy
     S(rot)  - rotational entropy
     S(trans)- translational entropy
The entropies will be listed as multiplied by the temperature to get
units of energy

Electronic entropy                ...      0.00000000 Eh      0.00 kcal/mol
Vibrational entropy               ...      0.03079737 Eh     19.33 kcal/mol
Rotational entropy                ...      0.01656664 Eh     10.40 kcal/mol
Translational entropy             ...      0.02047516 Eh     12.85 kcal/mol
-----------------------------------------------------------------------
Final entropy term                ...      0.06783917 Eh     42.57 kcal/mol

In case the symmetry of your molecule has not been determined correctly
or in case you have a reason to use a different symmetry number we print 
out the resulting rotational entropy values for sn=1,12 :
 --------------------------------------------------------
|  sn= 1 | S(rot)=       0.01656664 Eh     10.40 kcal/mol|
|  sn= 2 | S(rot)=       0.01591218 Eh      9.99 kcal/mol|
|  sn= 3 | S(rot)=       0.01552935 Eh      9.74 kcal/mol|
|  sn= 4 | S(rot)=       0.01525772 Eh      9.57 kcal/mol|
|  sn= 5 | S(rot)=       0.01504704 Eh      9.44 kcal/mol|
|  sn= 6 | S(rot)=       0.01487489 Eh      9.33 kcal/mol|
|  sn= 7 | S(rot)=       0.01472935 Eh      9.24 kcal/mol|
|  sn= 8 | S(rot)=       0.01460327 Eh      9.16 kcal/mol|
|  sn= 9 | S(rot)=       0.01449206 Eh      9.09 kcal/mol|
|  sn=10 | S(rot)=       0.01439258 Eh      9.03 kcal/mol|
|  sn=11 | S(rot)=       0.01430259 Eh      8.97 kcal/mol|
|  sn=12 | S(rot)=       0.01422044 Eh      8.92 kcal/mol|
 --------------------------------------------------------


-------------------
GIBBS FREE ENERGY
-------------------

The Gibbs free energy is G = H - T*S

Total enthalpy                    ...  -1088.32061340 Eh 
Total entropy correction          ...     -0.06783917 Eh    -42.57 kcal/mol
-----------------------------------------------------------------------
Final Gibbs free energy         ...  -1088.38845257 Eh

For completeness - the Gibbs free energy minus the electronic energy
G-E(el)                           ...      0.29338954 Eh    184.10 kcal/mol


Timings for individual modules:

Sum of individual times         ...    19114.791 sec (= 318.580 min)
GTO integral calculation        ...       38.952 sec (=   0.649 min)   0.2 %
SCF iterations                  ...     9873.399 sec (= 164.557 min)  51.7 %
SCF Gradient evaluation         ...     2547.678 sec (=  42.461 min)  13.3 %
Geometry relaxation             ...        2.338 sec (=   0.039 min)   0.0 %
Analytical frequency calculation...     5224.429 sec (=  87.074 min)  27.3 %
CHELPG charge generation        ...     1427.995 sec (=  23.800 min)   7.5 %
                             ****ORCA TERMINATED NORMALLY****
TOTAL RUN TIME: 0 days 5 hours 18 minutes 56 seconds 826 msec
