
Lmod is automatically replacing "intel/2020.1.217" with "gcc/10.3.0".


Due to MODULEPATH changes, the following have been reloaded:
  1) blis/0.8.1     2) flexiblas/3.0.4

The following have been reloaded with a version change:
  1) gcccore/.9.3.0 => gcccore/.10.3.0        3) openmpi/4.0.3 => openmpi/4.1.1
  2) libfabric/1.10.1 => libfabric/1.12.1     4) ucx/1.8.0 => ucx/1.9.0

To execute ORCA, run: 
   ${EBROOTORCA}/orca orca.inp > orca.out

                                 *****************
                                 * O   R   C   A *
                                 *****************

                                            #,                                       
                                            ###                                      
                                            ####                                     
                                            #####                                    
                                            ######                                   
                                           ########,                                 
                                     ,,################,,,,,                         
                               ,,#################################,,                 
                          ,,##########################################,,             
                       ,#########################################, ''#####,          
                    ,#############################################,,   '####,        
                  ,##################################################,,,,####,       
                ,###########''''           ''''###############################       
              ,#####''   ,,,,##########,,,,          '''####'''          '####       
            ,##' ,,,,###########################,,,                        '##       
           ' ,,###''''                  '''############,,,                           
         ,,##''                                '''############,,,,        ,,,,,,###''
      ,#''                                            '''#######################'''  
     '                                                          ''''####''''         
             ,#######,   #######,   ,#######,      ##                                
            ,#'     '#,  ##    ##  ,#'     '#,    #''#        ######   ,####,        
            ##       ##  ##   ,#'  ##            #'  '#       #        #'  '#        
            ##       ##  #######   ##           ,######,      #####,   #    #        
            '#,     ,#'  ##    ##  '#,     ,#' ,#      #,         ##   #,  ,#        
             '#######'   ##     ##  '#######'  #'      '#     #####' # '####'        



                  #######################################################
                  #                        -***-                        #
                  #          Department of theory and spectroscopy      #
                  #    Directorship and core code : Frank Neese         #
                  #        Max Planck Institute fuer Kohlenforschung    #
                  #                Kaiser Wilhelm Platz 1               #
                  #                 D-45470 Muelheim/Ruhr               #
                  #                      Germany                        #
                  #                                                     #
                  #                  All rights reserved                #
                  #                        -***-                        #
                  #######################################################


                         Program Version 5.0.3 -  RELEASE  -


 With contributions from (in alphabetic order):
   Daniel Aravena         : Magnetic Suceptibility
   Michael Atanasov       : Ab Initio Ligand Field Theory (pilot matlab implementation)
   Alexander A. Auer      : GIAO ZORA, VPT2 properties, NMR spectrum
   Ute Becker             : Parallelization
   Giovanni Bistoni       : ED, misc. LED, open-shell LED, HFLD
   Martin Brehm           : Molecular dynamics
   Dmytro Bykov           : SCF Hessian
   Vijay G. Chilkuri      : MRCI spin determinant printing, contributions to CSF-ICE
   Dipayan Datta          : RHF DLPNO-CCSD density
   Achintya Kumar Dutta   : EOM-CC, STEOM-CC
   Dmitry Ganyushin       : Spin-Orbit,Spin-Spin,Magnetic field MRCI
   Miquel Garcia          : C-PCM and meta-GGA Hessian, CC/C-PCM, Gaussian charge scheme
   Yang Guo               : DLPNO-NEVPT2, F12-NEVPT2, CIM, IAO-localization
   Andreas Hansen         : Spin unrestricted coupled pair/coupled cluster methods
   Benjamin Helmich-Paris : MC-RPA, TRAH-SCF, COSX integrals
   Lee Huntington         : MR-EOM, pCC
   Robert Izsak           : Overlap fitted RIJCOSX, COSX-SCS-MP3, EOM
   Marcus Kettner         : VPT2
   Christian Kollmar      : KDIIS, OOCD, Brueckner-CCSD(T), CCSD density, CASPT2, CASPT2-K
   Simone Kossmann        : Meta GGA functionals, TD-DFT gradient, OOMP2, MP2 Hessian
   Martin Krupicka        : Initial AUTO-CI
   Lucas Lang             : DCDCAS
   Marvin Lechner         : AUTO-CI (C++ implementation), FIC-MRCC
   Dagmar Lenk            : GEPOL surface, SMD
   Dimitrios Liakos       : Extrapolation schemes; Compound Job, initial MDCI parallelization
   Dimitrios Manganas     : Further ROCIS development; embedding schemes
   Dimitrios Pantazis     : SARC Basis sets
   Anastasios Papadopoulos: AUTO-CI, single reference methods and gradients
   Taras Petrenko         : DFT Hessian,TD-DFT gradient, ASA, ECA, R-Raman, ABS, FL, XAS/XES, NRVS
   Peter Pinski           : DLPNO-MP2, DLPNO-MP2 Gradient
   Christoph Reimann      : Effective Core Potentials
   Marius Retegan         : Local ZFS, SOC
   Christoph Riplinger    : Optimizer, TS searches, QM/MM, DLPNO-CCSD(T), (RO)-DLPNO pert. Triples
   Tobias Risthaus        : Range-separated hybrids, TD-DFT gradient, RPA, STAB
   Michael Roemelt        : Original ROCIS implementation
   Masaaki Saitow         : Open-shell DLPNO-CCSD energy and density
   Barbara Sandhoefer     : DKH picture change effects
   Avijit Sen             : IP-ROCIS
   Kantharuban Sivalingam : CASSCF convergence, NEVPT2, FIC-MRCI
   Bernardo de Souza      : ESD, SOC TD-DFT
   Georgi Stoychev        : AutoAux, RI-MP2 NMR, DLPNO-MP2 response
   Willem Van den Heuvel  : Paramagnetic NMR
   Boris Wezisla          : Elementary symmetry handling
   Frank Wennmohs         : Technical directorship


 We gratefully acknowledge several colleagues who have allowed us to
 interface, adapt or use parts of their codes:
   Stefan Grimme, W. Hujo, H. Kruse, P. Pracht,  : VdW corrections, initial TS optimization,
                  C. Bannwarth, S. Ehlert          DFT functionals, gCP, sTDA/sTD-DF
   Ed Valeev, F. Pavosevic, A. Kumar             : LibInt (2-el integral package), F12 methods
   Garnet Chan, S. Sharma, J. Yang, R. Olivares  : DMRG
   Ulf Ekstrom                                   : XCFun DFT Library
   Mihaly Kallay                                 : mrcc  (arbitrary order and MRCC methods)
   Jiri Pittner, Ondrej Demel                    : Mk-CCSD
   Frank Weinhold                                : gennbo (NPA and NBO analysis)
   Christopher J. Cramer and Donald G. Truhlar   : smd solvation model
   Lars Goerigk                                  : TD-DFT with DH, B97 family of functionals
   V. Asgeirsson, H. Jonsson                     : NEB implementation
   FAccTs GmbH                                   : IRC, NEB, NEB-TS, DLPNO-Multilevel, CI-OPT
                                                   MM, QMMM, 2- and 3-layer-ONIOM, Crystal-QMMM,
                                                   LR-CPCM, SF, NACMEs, symmetry and pop. for TD-DFT,
                                                   nearIR, NL-DFT gradient (VV10), updates on ESD,
                                                   ML-optimized integration grids
   S Lehtola, MJT Oliveira, MAL Marques          : LibXC Library
   Liviu Ungur et al                             : ANISO software


 Your calculation uses the libint2 library for the computation of 2-el integrals
 For citations please refer to: http://libint.valeyev.net

 Your ORCA version has been built with support for libXC version: 5.1.0
 For citations please refer to: https://tddft.org/programs/libxc/

 This ORCA versions uses:
   CBLAS   interface :  Fast vector & matrix operations
   LAPACKE interface :  Fast linear algebra routines
   SCALAPACK package :  Parallel linear algebra routines
   Shared memory     :  Shared parallel matrices
   BLAS/LAPACK       :  OpenBLAS 0.3.15  USE64BITINT DYNAMIC_ARCH NO_AFFINITY Zen SINGLE_THREADED
        Core in use  :  Zen
   Copyright (c) 2011-2014, The OpenBLAS Project


Your calculation utilizes the atom-pairwise dispersion correction
with the zero-damping scheme (D30)
Cite in your paper:
S.Grimme, J.Antony, S.Ehrlich and H.Krieg, J.Chem.Phys., 132, (2010), 154104 
   

XCFun DFT library Copyright 2009-2010 Ulf Ekstrom and contributors.
See http://admol.org/xcfun for more information.
This is free software; see the source code for copying conditions.
There is ABSOLUTELY NO WARRANTY; not even for MERCHANTABILITY or FITNESS FOR A PARTICULAR PURPOSE.
For details see the documentation.
Scientific users of this library should cite U. Ekstrom, L. Visscher, R. Bast, A. J. Thorvaldsen and K. Ruud;
J.Chem.Theor.Comp. 2010, DOI: 10.1021/ct100117s
XCFun Version 0.99 

================================================================================

----- Orbital basis set information -----
Your calculation utilizes the basis: def2-TZVPP
   F. Weigend and R. Ahlrichs, Phys. Chem. Chem. Phys. 7, 3297 (2005).

----- AuxJ basis set information -----
Your calculation utilizes the auxiliary basis: def2/J
   F. Weigend, Phys. Chem. Chem. Phys. 8, 1057 (2006).

================================================================================
                                        WARNINGS
                       Please study these warnings very carefully!
================================================================================


WARNING: Geometry Optimization
  ===> : Switching off AutoStart
         For restart on a previous wavefunction, please use MOREAD

INFO   : the flag for use of the SHARK integral package has been found!

================================================================================
                                       INPUT FILE
================================================================================
NAME = Fluoxetine_1.inp
|  1> ! wB97X-D3 TightOpt Freq def2-TZVPP def2/J RIJCOSX TightSCF defgrid3 CHELPG
|  2> %maxcore 3200
|  3> 
|  4> %pal nprocs 8 
|  5> end
|  6> 
|  7> %chelpg
|  8> grid 0.1
|  9> rmax 3.0
| 10> end
| 11> 
| 12> 
| 13> *xyz 1 1
| 14>  C    -3.3566452018    2.7575555447    -1.8550044528
| 15>  N    -3.0256177114    2.5390634414    -0.4385250868
| 16>  C    -3.9328695935    1.5951563473    0.2661241203
| 17>  C    -3.2724681224    1.1143173662    1.5524158121
| 18>  C    -2.0060050464    0.2778486287    1.2773796413
| 19>  C    -2.3302597563    -0.9272162327    0.4177761408
| 20>  C    -2.0796696805    -0.9396926291    -0.9485754109
| 21>  C    -2.4066252321    -2.0507276407    -1.7077944137
| 22>  C    -2.9950022970    -3.1514929446    -1.1106136251
| 23>  C    -3.2478912407    -3.1439227151    0.2517258593
| 24>  C    -2.9155449996    -2.0385951082    1.0133040630
| 25>  O    -1.0593168727    1.1642227816    0.6711503628
| 26>  C    0.2523360754    0.7612253912    0.5181507867
| 27>  C    0.7331870155    -0.4937534904    0.8603306562
| 28>  C    2.0704650867    -0.7884319026    0.6588142760
| 29>  C    2.9206127676    0.1645056587    0.1202928415
| 30>  C    2.4387120264    1.4206655348    -0.2259518511
| 31>  C    1.1069129069    1.7172456777    -0.0261665182
| 32>  C    4.3649853862    -0.1720606090    -0.1381024436
| 33>  F    5.1675543252    0.8903261978    0.0010984674
| 34>  F    4.8254362129    -1.1246499182    0.6792151997
| 35>  F    4.5427763825    -0.6230047630    -1.3943720658
| 36>  H    -4.3653632970    3.1562946703    -1.9496949008
| 37>  H    -3.3016561748    1.8142838740    -2.3950280917
| 38>  H    -2.6571738050    3.4607741886    -2.3020807536
| 39>  H    -3.0202125093    3.4357247742    0.0584564217
| 40>  H    -4.1117915358    0.7413637490    -0.3919186037
| 41>  H    -4.8855800531    2.0852309250    0.4728394322
| 42>  H    -3.9791981522    0.4917975682    2.0992239463
| 43>  H    -3.0092830433    1.9628388921    2.1866163236
| 44>  H    -1.6081391312    -0.0579350863    2.2439054419
| 45>  H    -1.5956314604    -0.0977994062    -1.4255099225
| 46>  H    -2.1959555553    -2.0544493897    -2.7659748309
| 47>  H    -3.2476757107    -4.0163945347    -1.7028860554
| 48>  H    -3.6974848234    -4.0029414628    0.7239684511
| 49>  H    -3.1010501730    -2.0395682680    2.0773785696
| 50>  H    0.0866541991    -1.2516471812    1.2703474144
| 51>  H    2.4496572185    -1.7623171923    0.9252744501
| 52>  H    3.1043050710    2.1602571173    -0.6420576740
| 53>  H    0.7233736848    2.6933425002    -0.2804328678
| 54>  H    -2.0665207686    2.1197712735    -0.3149157273
| 55> *
| 56> 
| 57> 
| 58>                          ****END OF INPUT****
================================================================================

                       *****************************
                       * Geometry Optimization Run *
                       *****************************

Geometry optimization settings:
Update method            Update   .... BFGS
Choice of coordinates    CoordSys .... Z-matrix Internals
Initial Hessian          InHess   .... Almoef's Model

Convergence Tolerances:
Energy Change            TolE     ....  1.0000e-06 Eh
Max. Gradient            TolMAXG  ....  1.0000e-04 Eh/bohr
RMS Gradient             TolRMSG  ....  3.0000e-05 Eh/bohr
Max. Displacement        TolMAXD  ....  1.0000e-03 bohr
RMS Displacement         TolRMSD  ....  6.0000e-04 bohr
Strict Convergence                ....  False
------------------------------------------------------------------------------
                        ORCA OPTIMIZATION COORDINATE SETUP
------------------------------------------------------------------------------

The optimization will be done in new redundant internal coordinates
Making redundant internal coordinates   ...  (new redundants) done
Evaluating the initial hessian          ...  (Almloef) done
Evaluating the coordinates              ...  done
Calculating the B-matrix                .... done
Calculating the G-matrix                .... done
Diagonalizing the G-matrix              .... done
Small eigenvalue found = 1.882e-03
Small eigenvalue found = 5.311e-03
Small eigenvalue found = 7.406e-03
Small eigenvalue found = 1.080e-02
Small eigenvalue found = 1.276e-02
Small eigenvalue found = 2.179e-02
The first mode is                       ....   99
The number of degrees of freedom        ....  117

    -----------------------------------------------------------------
                    Redundant Internal Coordinates


    -----------------------------------------------------------------
         Definition                    Initial Value    Approx d2E/dq
    -----------------------------------------------------------------
      1. B(N   1,C   0)                  1.4710         0.415628   
      2. B(C   2,N   1)                  1.4868         0.392125   
      3. B(C   3,C   2)                  1.5238         0.382220   
      4. B(C   4,C   3)                  1.5425         0.356830   
      5. B(C   5,C   4)                  1.5153         0.394252   
      6. B(C   6,C   5)                  1.3892         0.626643   
      7. B(C   7,C   6)                  1.3848         0.636812   
      8. B(C   8,C   7)                  1.3837         0.639535   
      9. B(C   9,C   8)                  1.3856         0.634901   
     10. B(C  10,C   9)                  1.3828         0.641484   
     11. B(C  10,C   5)                  1.3901         0.624569   
     12. B(O  11,C   4)                  1.4316         0.480346   
     13. B(C  12,O  11)                  1.3807         0.579110   
     14. B(C  13,C  12)                  1.3868         0.632132   
     15. B(C  14,C  13)                  1.3841         0.638466   
     16. B(C  15,C  14)                  1.3859         0.634171   
     17. B(C  16,C  15)                  1.3893         0.626491   
     18. B(C  17,C  16)                  1.3790         0.650629   
     19. B(C  17,C  12)                  1.3930         0.617860   
     20. B(C  18,C  15)                  1.5054         0.408894   
     21. B(F  19,C  18)                  1.3387         0.627751   
     22. B(F  20,C  18)                  1.3370         0.631824   
     23. B(F  21,C  18)                  1.3465         0.609961   
     24. B(H  22,C   0)                  1.0888         0.361700   
     25. B(H  23,C   0)                  1.0883         0.362347   
     26. B(H  24,C   0)                  1.0880         0.362811   
     27. B(H  25,N   1)                  1.0252         0.409218   
     28. B(H  26,C   2)                  1.0927         0.356545   
     29. B(H  27,C   2)                  1.0911         0.358610   
     30. B(H  28,C   3)                  1.0890         0.361379   
     31. B(H  29,C   3)                  1.0915         0.358065   
     32. B(H  30,C   4)                  1.0978         0.349896   
     33. B(H  31,C   6)                  1.0819         0.370954   
     34. B(H  32,C   7)                  1.0790         0.375013   
     35. B(H  33,C   8)                  1.0783         0.375944   
     36. B(H  34,C   9)                  1.0785         0.375704   
     37. B(H  35,C  10)                  1.0801         0.373405   
     38. B(H  36,C  13)                  1.0773         0.377333   
     39. B(H  37,C  14)                  1.0785         0.375589   
     40. B(H  38,C  16)                  1.0785         0.375644   
     41. B(H  39,C  17)                  1.0791         0.374772   
     42. B(H  40,N   1)                  1.0540         0.368102   
     43. A(N   1,C   0,H  22)          110.2816         0.328326   
     44. A(H  22,C   0,H  24)          108.8558         0.291385   
     45. A(N   1,C   0,H  24)          110.3061         0.328492   
     46. A(H  22,C   0,H  23)          108.7278         0.291327   
     47. A(H  23,C   0,H  24)          108.8950         0.291467   
     48. A(N   1,C   0,H  23)          109.7377         0.328423   
     49. A(C   0,N   1,C   2)          114.4160         0.368499   
     50. A(C   0,N   1,H  25)          109.7603         0.332238   
     51. A(C   2,N   1,H  25)          109.1917         0.329055   
     52. A(C   2,N   1,H  40)          104.3072         0.323370   
     53. A(H  25,N   1,H  40)          106.6355         0.292964   
     54. A(C   0,N   1,H  40)          112.1353         0.326478   
     55. A(N   1,C   2,H  27)          109.7209         0.324735   
     56. A(C   3,C   2,H  26)          109.4365         0.325010   
     57. A(H  26,C   2,H  27)          108.7878         0.290198   
     58. A(N   1,C   2,C   3)          109.6300         0.365523   
     59. A(N   1,C   2,H  26)          108.0927         0.324427   
     60. A(C   3,C   2,H  27)          111.1140         0.325319   
     61. A(C   2,C   3,H  29)          110.4664         0.325237   
     62. A(C   2,C   3,H  28)          108.8430         0.325730   
     63. A(C   4,C   3,H  29)          109.0980         0.321590   
     64. A(C   4,C   3,H  28)          108.2020         0.322076   
     65. A(H  28,C   3,H  29)          108.0050         0.290742   
     66. A(C   2,C   3,C   4)          112.1139         0.361928   
     67. A(C   5,C   4,H  30)          109.4958         0.325661   
     68. A(C   3,C   4,H  30)          107.8451         0.320379   
     69. A(O  11,C   4,H  30)          108.8167         0.334444   
     70. A(C   3,C   4,O  11)          106.4216         0.374051   
     71. A(C   3,C   4,C   5)          110.8982         0.363850   
     72. A(C   5,C   4,O  11)          113.1830         0.380558   
     73. A(C   4,C   5,C   6)          121.7682         0.401211   
     74. A(C   6,C   5,C  10)          119.3492         0.435475   
     75. A(C   4,C   5,C  10)          118.8730         0.400977   
     76. A(C   7,C   6,H  31)          119.2261         0.356302   
     77. A(C   5,C   6,H  31)          120.4834         0.355330   
     78. A(C   5,C   6,C   7)          120.2548         0.437000   
     79. A(C   6,C   7,H  32)          119.6274         0.356962   
     80. A(C   6,C   7,C   8)          120.1354         0.438608   
     81. A(C   8,C   7,H  32)          120.2366         0.357221   
     82. A(C   9,C   8,H  33)          120.1097         0.356930   
     83. A(C   7,C   8,H  33)          120.0464         0.357371   
     84. A(C   7,C   8,C   9)          119.8416         0.438370   
     85. A(C  10,C   9,H  34)          119.7170         0.357517   
     86. A(C   8,C   9,H  34)          120.1497         0.356891   
     87. A(C   8,C   9,C  10)          120.1315         0.438611   
     88. A(C   9,C  10,H  35)          120.0371         0.357145   
     89. A(C   5,C  10,H  35)          119.6745         0.355528   
     90. A(C   5,C  10,C   9)          120.2855         0.437315   
     91. A(C   4,O  11,C  12)          119.6328         0.404451   
     92. A(C  13,C  12,C  17)          120.3144         0.435312   
     93. A(O  11,C  12,C  17)          115.2001         0.425719   
     94. A(O  11,C  12,C  13)          124.4850         0.427464   
     95. A(C  12,C  13,H  36)          121.4976         0.356889   
     96. A(C  12,C  13,C  14)          119.4547         0.437893   
     97. A(C  14,C  13,H  36)          119.0440         0.357494   
     98. A(C  13,C  14,C  15)          120.1880         0.438147   
     99. A(C  15,C  14,H  37)          120.0788         0.356803   
    100. A(C  13,C  14,H  37)          119.7330         0.357212   
    101. A(C  16,C  15,C  18)          119.4842         0.403781   
    102. A(C  14,C  15,C  18)          120.0998         0.404650   
    103. A(C  14,C  15,C  16)          120.3819         0.436654   
    104. A(C  15,C  16,C  17)          119.5622         0.438676   
    105. A(C  17,C  16,H  38)          120.2946         0.358369   
    106. A(C  15,C  16,H  38)          120.1420         0.356074   
    107. A(C  12,C  17,C  16)          120.0983         0.437580   
    108. A(C  16,C  17,H  39)          120.2424         0.358228   
    109. A(C  12,C  17,H  39)          119.6561         0.355097   
    110. A(F  20,C  18,F  21)          106.6341         0.424825   
    111. A(F  19,C  18,F  21)          106.4763         0.424334   
    112. A(C  15,C  18,F  21)          111.2041         0.397574   
    113. A(F  19,C  18,F  20)          107.1814         0.427018   
    114. A(C  15,C  18,F  20)          112.6316         0.400043   
    115. A(C  15,C  18,F  19)          112.3293         0.399589   
    116. D(C   2,N   1,C   0,H  24)    179.6643         0.015779   
    117. D(H  25,N   1,C   0,H  24)     56.5245         0.015779   
    118. D(H  25,N   1,C   0,H  23)    176.4989         0.015779   
    119. D(H  25,N   1,C   0,H  22)    -63.7488         0.015779   
    120. D(H  40,N   1,C   0,H  24)    -61.8040         0.015779   
    121. D(H  40,N   1,C   0,H  22)    177.9227         0.015779   
    122. D(H  40,N   1,C   0,H  23)     58.1704         0.015779   
    123. D(C   2,N   1,C   0,H  22)     59.3910         0.015779   
    124. D(C   2,N   1,C   0,H  23)    -60.3613         0.015779   
    125. D(H  26,C   2,N   1,H  40)    -79.4937         0.014061   
    126. D(H  26,C   2,N   1,H  25)    166.8280         0.014061   
    127. D(H  26,C   2,N   1,C   0)     43.3820         0.014061   
    128. D(H  27,C   2,N   1,H  25)     48.3358         0.014061   
    129. D(C   3,C   2,N   1,C   0)    162.6044         0.014061   
    130. D(C   3,C   2,N   1,H  40)     39.7287         0.014061   
    131. D(H  27,C   2,N   1,H  40)    162.0140         0.014061   
    132. D(C   3,C   2,N   1,H  25)    -73.9496         0.014061   
    133. D(H  27,C   2,N   1,C   0)    -75.1102         0.014061   
    134. D(H  29,C   3,C   2,H  26)    175.2266         0.011637   
    135. D(H  29,C   3,C   2,N   1)     56.8344         0.011637   
    136. D(H  28,C   3,C   2,H  27)     53.8061         0.011637   
    137. D(H  28,C   3,C   2,H  26)    -66.3506         0.011637   
    138. D(C   4,C   3,C   2,H  27)    173.4716         0.011637   
    139. D(H  28,C   3,C   2,N   1)    175.2573         0.011637   
    140. D(C   4,C   3,C   2,H  26)     53.3149         0.011637   
    141. D(H  29,C   3,C   2,H  27)    -64.6167         0.011637   
    142. D(C   4,C   3,C   2,N   1)    -65.0773         0.011637   
    143. D(O  11,C   4,C   3,C   2)     65.2050         0.010228   
    144. D(C   5,C   4,C   3,H  29)    179.0210         0.010228   
    145. D(C   5,C   4,C   3,H  28)     61.7510         0.010228   
    146. D(C   5,C   4,C   3,C   2)    -58.2887         0.010228   
    147. D(H  30,C   4,C   3,H  29)     59.1389         0.010228   
    148. D(H  30,C   4,C   3,H  28)    -58.1312         0.010228   
    149. D(H  30,C   4,C   3,C   2)   -178.1709         0.010228   
    150. D(O  11,C   4,C   3,H  29)    -57.4853         0.010228   
    151. D(O  11,C   4,C   3,H  28)   -174.7554         0.010228   
    152. D(C  10,C   5,C   4,H  30)     40.2253         0.011551   
    153. D(C  10,C   5,C   4,O  11)    161.8148         0.011551   
    154. D(C  10,C   5,C   4,C   3)    -78.6664         0.011551   
    155. D(C   6,C   5,C   4,H  30)   -140.9157         0.011551   
    156. D(C   6,C   5,C   4,O  11)    -19.3262         0.011551   
    157. D(C   6,C   5,C   4,C   3)    100.1926         0.011551   
    158. D(H  31,C   6,C   5,C  10)   -178.0031         0.027208   
    159. D(H  31,C   6,C   5,C   4)      3.1432         0.027208   
    160. D(C   7,C   6,C   5,C  10)     -0.1932         0.027208   
    161. D(C   7,C   6,C   5,C   4)   -179.0469         0.027208   
    162. D(H  32,C   7,C   6,H  31)     -1.3812         0.028157   
    163. D(H  32,C   7,C   6,C   5)   -179.2185         0.028157   
    164. D(C   8,C   7,C   6,H  31)    178.3487         0.028157   
    165. D(C   8,C   7,C   6,C   5)      0.5113         0.028157   
    166. D(H  33,C   8,C   7,H  32)     -0.1826         0.028414   
    167. D(H  33,C   8,C   7,C   6)   -179.9108         0.028414   
    168. D(C   9,C   8,C   7,H  32)    179.2602         0.028414   
    169. D(C   9,C   8,C   7,C   6)     -0.4681         0.028414   
    170. D(H  34,C   9,C   8,H  33)      0.0389         0.027977   
    171. D(H  34,C   9,C   8,C   7)   -179.4035         0.027977   
    172. D(C  10,C   9,C   8,H  33)    179.5514         0.027977   
    173. D(C  10,C   9,C   8,C   7)      0.1089         0.027977   
    174. D(C   5,C  10,C   9,C   8)      0.2085         0.028600   
    175. D(H  35,C  10,C   5,C   6)    179.2138         0.027017   
    176. D(H  35,C  10,C   5,C   4)     -1.8991         0.027017   
    177. D(C   9,C  10,C   5,C   6)     -0.1660         0.027017   
    178. D(C   9,C  10,C   5,C   4)    178.7211         0.027017   
    179. D(H  35,C  10,C   9,H  34)      0.3454         0.028600   
    180. D(H  35,C  10,C   9,C   8)   -179.1691         0.028600   
    181. D(C   5,C  10,C   9,H  34)    179.7231         0.028600   
    182. D(C  12,O  11,C   4,H  30)     52.9702         0.018202   
    183. D(C  12,O  11,C   4,C   5)    -69.0001         0.018202   
    184. D(C  12,O  11,C   4,C   3)    168.9430         0.018202   
    185. D(C  17,C  12,O  11,C   4)   -177.1970         0.024387   
    186. D(C  13,C  12,O  11,C   4)      3.0671         0.024387   
    187. D(H  36,C  13,C  12,C  17)   -179.1801         0.027718   
    188. D(H  36,C  13,C  12,O  11)      0.5431         0.027718   
    189. D(C  14,C  13,C  12,C  17)      0.1135         0.027718   
    190. D(C  14,C  13,C  12,O  11)    179.8367         0.027718   
    191. D(H  37,C  14,C  13,H  36)     -0.8191         0.028313   
    192. D(H  37,C  14,C  13,C  12)    179.8699         0.028313   
    193. D(C  15,C  14,C  13,H  36)    179.3582         0.028313   
    194. D(C  15,C  14,C  13,C  12)      0.0471         0.028313   
    195. D(C  18,C  15,C  14,H  37)      2.0928         0.027909   
    196. D(C  18,C  15,C  14,C  13)   -178.0851         0.027909   
    197. D(C  16,C  15,C  14,H  37)    179.9598         0.027909   
    198. D(C  16,C  15,C  14,C  13)     -0.2181         0.027909   
    199. D(H  38,C  16,C  15,C  18)     -2.2985         0.027194   
    200. D(H  38,C  16,C  15,C  14)    179.8214         0.027194   
    201. D(C  17,C  16,C  15,C  18)    178.1065         0.027194   
    202. D(C  17,C  16,C  15,C  14)      0.2264         0.027194   
    203. D(H  39,C  17,C  16,C  15)    179.2842         0.029478   
    204. D(C  12,C  17,C  16,H  38)   -179.6597         0.029478   
    205. D(C  12,C  17,C  16,C  15)     -0.0654         0.029478   
    206. D(H  39,C  17,C  12,C  13)   -179.4579         0.026405   
    207. D(H  39,C  17,C  12,O  11)      0.7943         0.026405   
    208. D(C  16,C  17,C  12,C  13)     -0.1045         0.026405   
    209. D(H  39,C  17,C  16,H  38)     -0.3102         0.029478   
    210. D(C  16,C  17,C  12,O  11)   -179.8523         0.026405   
    211. D(F  21,C  18,C  15,C  16)    -85.6232         0.012386   
    212. D(F  21,C  18,C  15,C  14)     92.2630         0.012386   
    213. D(F  20,C  18,C  15,C  16)    154.7463         0.012386   
    214. D(F  20,C  18,C  15,C  14)    -27.3675         0.012386   
    215. D(F  19,C  18,C  15,C  16)     33.6004         0.012386   
    216. D(F  19,C  18,C  15,C  14)   -148.5134         0.012386   
    -----------------------------------------------------------------

Number of atoms                         .... 41
Number of degrees of freedom            .... 216

         *************************************************************
         *                GEOMETRY OPTIMIZATION CYCLE   1            *
         *************************************************************
---------------------------------
CARTESIAN COORDINATES (ANGSTROEM)
---------------------------------
  C     -3.356645    2.757556   -1.855004
  N     -3.025618    2.539063   -0.438525
  C     -3.932870    1.595156    0.266124
  C     -3.272468    1.114317    1.552416
  C     -2.006005    0.277849    1.277380
  C     -2.330260   -0.927216    0.417776
  C     -2.079670   -0.939693   -0.948575
  C     -2.406625   -2.050728   -1.707794
  C     -2.995002   -3.151493   -1.110614
  C     -3.247891   -3.143923    0.251726
  C     -2.915545   -2.038595    1.013304
  O     -1.059317    1.164223    0.671150
  C      0.252336    0.761225    0.518151
  C      0.733187   -0.493753    0.860331
  C      2.070465   -0.788432    0.658814
  C      2.920613    0.164506    0.120293
  C      2.438712    1.420666   -0.225952
  C      1.106913    1.717246   -0.026167
  C      4.364985   -0.172061   -0.138102
  F      5.167554    0.890326    0.001098
  F      4.825436   -1.124650    0.679215
  F      4.542776   -0.623005   -1.394372
  H     -4.365363    3.156295   -1.949695
  H     -3.301656    1.814284   -2.395028
  H     -2.657174    3.460774   -2.302081
  H     -3.020213    3.435725    0.058456
  H     -4.111792    0.741364   -0.391919
  H     -4.885580    2.085231    0.472839
  H     -3.979198    0.491798    2.099224
  H     -3.009283    1.962839    2.186616
  H     -1.608139   -0.057935    2.243905
  H     -1.595631   -0.097799   -1.425510
  H     -2.195956   -2.054449   -2.765975
  H     -3.247676   -4.016395   -1.702886
  H     -3.697485   -4.002941    0.723968
  H     -3.101050   -2.039568    2.077379
  H      0.086654   -1.251647    1.270347
  H      2.449657   -1.762317    0.925274
  H      3.104305    2.160257   -0.642058
  H      0.723374    2.693343   -0.280433
  H     -2.066521    2.119771   -0.314916

----------------------------
CARTESIAN COORDINATES (A.U.)
----------------------------
  NO LB      ZA    FRAG     MASS         X           Y           Z
   0 C     6.0000    0    12.011   -6.343140    5.211025   -3.505450
   1 N     7.0000    0    14.007   -5.717589    4.798135   -0.828692
   2 C     6.0000    0    12.011   -7.432046    3.014409    0.502902
   3 C     6.0000    0    12.011   -6.184069    2.105755    2.933641
   4 C     6.0000    0    12.011   -3.790800    0.525058    2.413898
   5 C     6.0000    0    12.011   -4.403553   -1.752185    0.789482
   6 C     6.0000    0    12.011   -3.930006   -1.775762   -1.792548
   7 C     6.0000    0    12.011   -4.547863   -3.875314   -3.227264
   8 C     6.0000    0    12.011   -5.659734   -5.955459   -2.098756
   9 C     6.0000    0    12.011   -6.137625   -5.941153    0.475693
  10 C     6.0000    0    12.011   -5.509582   -3.852386    1.914867
  11 O     8.0000    0    15.999   -2.001819    2.200062    1.268290
  12 C     6.0000    0    12.011    0.476846    1.438508    0.979163
  13 C     6.0000    0    12.011    1.385523   -0.933059    1.625789
  14 C     6.0000    0    12.011    3.912612   -1.489920    1.244979
  15 C     6.0000    0    12.011    5.519158    0.310871    0.227321
  16 C     6.0000    0    12.011    4.608498    2.684669   -0.426987
  17 C     6.0000    0    12.011    2.091762    3.245124   -0.049448
  18 C     6.0000    0    12.011    8.248627   -0.325147   -0.260976
  19 F     9.0000    0    18.998    9.765262    1.682473    0.002076
  20 F     9.0000    0    18.998    9.118753   -2.125280    1.283531
  21 F     9.0000    0    18.998    8.584603   -1.177308   -2.634981
  22 H     1.0000    0     1.008   -8.249341    5.964533   -3.684389
  23 H     1.0000    0     1.008   -6.239226    3.428500   -4.525947
  24 H     1.0000    0     1.008   -5.021331    6.539915   -4.350302
  25 H     1.0000    0     1.008   -5.707375    6.492579    0.110467
  26 H     1.0000    0     1.008   -7.770160    1.400974   -0.740619
  27 H     1.0000    0     1.008   -9.232408    3.940515    0.893537
  28 H     1.0000    0     1.008   -7.519595    0.929363    3.966958
  29 H     1.0000    0     1.008   -5.686721    3.709228    4.132106
  30 H     1.0000    0     1.008   -3.038943   -0.109481    4.240367
  31 H     1.0000    0     1.008   -3.015306   -0.184814   -2.693823
  32 H     1.0000    0     1.008   -4.149755   -3.882347   -5.226935
  33 H     1.0000    0     1.008   -6.137218   -7.589886   -3.217988
  34 H     1.0000    0     1.008   -6.987234   -7.564463    1.368102
  35 H     1.0000    0     1.008   -5.860136   -3.854225    3.925677
  36 H     1.0000    0     1.008    0.163753   -2.365270    2.400609
  37 H     1.0000    0     1.008    4.629181   -3.330297    1.748515
  38 H     1.0000    0     1.008    5.866286    4.082294   -1.213313
  39 H     1.0000    0     1.008    1.366978    5.089680   -0.529941
  40 H     1.0000    0     1.008   -3.905158    4.005787   -0.595104

--------------------------------
INTERNAL COORDINATES (ANGSTROEM)
--------------------------------
 C      0   0   0     0.000000000000     0.00000000     0.00000000
 N      1   0   0     1.470962879514     0.00000000     0.00000000
 C      2   1   0     1.486807682565   114.41601094     0.00000000
 C      3   2   1     1.523772471588   109.62998229   162.60443484
 C      4   3   2     1.542482922737   112.11392486   294.92271049
 C      5   4   3     1.515335149446   110.89823566   301.71127424
 C      6   5   4     1.389196749705   121.76818854   100.19260199
 C      7   6   5     1.384814869914   120.25480968   180.95314131
 C      8   7   6     1.383653395559   120.13540956     0.51132526
 C      9   8   7     1.385633067221   119.84159861   359.53194724
 C     10   9   8     1.382824827265   120.13146945     0.10894023
 O      5   4   3     1.431569619426   106.42158290    65.20495332
 C     12   5   4     1.380669845841   119.63281882   168.94296520
 C     13  12   5     1.386822513139   124.48498506     3.06714096
 C     14  13  12     1.384108687141   119.45468150   179.83665461
 C     15  14  13     1.385946034480   120.18795632     0.04714325
 C     16  15  14     1.389262878597   120.38192201   359.78186355
 C     17  16  15     1.378971665810   119.56221442     0.22644662
 C     16  15  14     1.505409325492   120.09983255   181.91487266
 F     19  16  15     1.338715624296   112.32927166   211.48658667
 F     19  16  15     1.336955304361   112.63155540   332.63249054
 F     19  16  15     1.346541359207   111.20410780    92.26295947
 H      1   2   3     1.088793537274   110.28163150    59.39102269
 H      1   2   3     1.088306376167   109.73765195   299.63869019
 H      1   2   3     1.087958599767   110.30612630   179.66432053
 H      2   1   3     1.025193338712   109.76026520   236.86022119
 H      3   2   1     1.092700823171   108.09268237    43.38203057
 H      3   2   1     1.091128558747   109.72086606   284.88980579
 H      4   3   2     1.089035063508   108.84303916   175.25725293
 H      4   3   2     1.091542694796   110.46637343    56.83439978
 H      5   4   3     1.097825174134   107.84507452   181.82912025
 H      7   6   5     1.081916690710   120.48336130     3.14321856
 H      8   7   6     1.078953826391   119.62744288   180.78145473
 H      9   8   7     1.078278835108   120.04635463   180.08916452
 H     10   9   8     1.078452903012   120.14971300   180.59650634
 H     11  10   9     1.080123915111   120.03709310   180.83089095
 H     14  13  12     1.077274928345   121.49761489     0.54305250
 H     15  14  13     1.078536162905   119.73296437   179.86985769
 H     17  16  15     1.078496113009   120.14195765   179.82144750
 H     18  17  16     1.079128684784   120.24240060   179.28421810
 H      2   1   3     1.054017144788   112.13526040   118.53166751

---------------------------
INTERNAL COORDINATES (A.U.)
---------------------------
 C      0   0   0     0.000000000000     0.00000000     0.00000000
 N      1   0   0     2.779716995446     0.00000000     0.00000000
 C      2   1   0     2.809659333857   114.41601094     0.00000000
 C      3   2   1     2.879512661710   109.62998229   162.60443484
 C      4   3   2     2.914870290223   112.11392486   294.92271049
 C      5   4   3     2.863568433557   110.89823566   301.71127424
 C      6   5   4     2.625201403075   121.76818854   100.19260199
 C      7   6   5     2.616920850320   120.25480968   180.95314131
 C      8   7   6     2.614725981878   120.13540956     0.51132526
 C      9   8   7     2.618467019153   119.84159861   359.53194724
 C     10   9   8     2.613160214717   120.13146945     0.10894023
 O      5   4   3     2.705274522357   106.42158290    65.20495332
 C     12   5   4     2.609087890003   119.63281882   168.94296520
 C     13  12   5     2.620714746188   124.48498506     3.06714096
 C     14  13  12     2.615586358277   119.45468150   179.83665461
 C     15  14  13     2.619058441562   120.18795632     0.04714325
 C     16  15  14     2.625326368571   120.38192201   359.78186355
 C     17  16  15     2.605878794817   119.56221442     0.22644662
 C     16  15  14     2.844811344630   120.09983255   181.91487266
 F     19  16  15     2.529805901120   112.32927166   211.48658667
 F     19  16  15     2.526479378537   112.63155540   332.63249054
 F     19  16  15     2.544594396899   111.20410780    92.26295947
 H      1   2   3     2.057521601832   110.28163150    59.39102269
 H      1   2   3     2.056601000756   109.73765195   299.63869019
 H      1   2   3     2.055943798604   110.30612630   179.66432053
 H      2   1   3     1.937334644486   109.76026520   236.86022119
 H      3   2   1     2.064905302103   108.09268237    43.38203057
 H      3   2   1     2.061934152932   109.72086606   284.88980579
 H      4   3   2     2.057978020268   108.84303916   175.25725293
 H      4   3   2     2.062716756648   110.46637343    56.83439978
 H      5   4   3     2.074588922038   107.84507452   181.82912025
 H      7   6   5     2.044526245161   120.48336130     3.14321856
 H      8   7   6     2.038927243026   119.62744288   180.78145473
 H      9   8   7     2.037651694358   120.04635463   180.08916452
 H     10   9   8     2.037980635025   120.14971300   180.59650634
 H     11  10   9     2.041138390258   120.03709310   180.83089095
 H     14  13  12     2.035754585512   121.49761489     0.54305250
 H     15  14  13     2.038137973421   119.73296437   179.86985769
 H     17  16  15     2.038062290086   120.14195765   179.82144750
 H     18  17  16     2.039257677499   120.24240060   179.28421810
 H      2   1   3     1.991803744107   112.13526040   118.53166751

---------------------
BASIS SET INFORMATION
---------------------
There are 5 groups of distinct atoms

 Group   1 Type C   : 11s6p2d1f contracted to 5s3p2d1f pattern {62111/411/11/1}
 Group   2 Type N   : 11s6p2d1f contracted to 5s3p2d1f pattern {62111/411/11/1}
 Group   3 Type O   : 11s6p2d1f contracted to 5s3p2d1f pattern {62111/411/11/1}
 Group   4 Type F   : 11s6p2d1f contracted to 5s3p2d1f pattern {62111/411/11/1}
 Group   5 Type H   : 5s2p1d contracted to 3s2p1d pattern {311/11/1}

Atom   0C    basis set group =>   1
Atom   1N    basis set group =>   2
Atom   2C    basis set group =>   1
Atom   3C    basis set group =>   1
Atom   4C    basis set group =>   1
Atom   5C    basis set group =>   1
Atom   6C    basis set group =>   1
Atom   7C    basis set group =>   1
Atom   8C    basis set group =>   1
Atom   9C    basis set group =>   1
Atom  10C    basis set group =>   1
Atom  11O    basis set group =>   3
Atom  12C    basis set group =>   1
Atom  13C    basis set group =>   1
Atom  14C    basis set group =>   1
Atom  15C    basis set group =>   1
Atom  16C    basis set group =>   1
Atom  17C    basis set group =>   1
Atom  18C    basis set group =>   1
Atom  19F    basis set group =>   4
Atom  20F    basis set group =>   4
Atom  21F    basis set group =>   4
Atom  22H    basis set group =>   5
Atom  23H    basis set group =>   5
Atom  24H    basis set group =>   5
Atom  25H    basis set group =>   5
Atom  26H    basis set group =>   5
Atom  27H    basis set group =>   5
Atom  28H    basis set group =>   5
Atom  29H    basis set group =>   5
Atom  30H    basis set group =>   5
Atom  31H    basis set group =>   5
Atom  32H    basis set group =>   5
Atom  33H    basis set group =>   5
Atom  34H    basis set group =>   5
Atom  35H    basis set group =>   5
Atom  36H    basis set group =>   5
Atom  37H    basis set group =>   5
Atom  38H    basis set group =>   5
Atom  39H    basis set group =>   5
Atom  40H    basis set group =>   5
---------------------------------
AUXILIARY/J BASIS SET INFORMATION
---------------------------------
There are 5 groups of distinct atoms

 Group   1 Type C   : 12s5p4d2f1g contracted to 6s4p3d1f1g pattern {711111/2111/211/2/1}
 Group   2 Type N   : 12s5p4d2f1g contracted to 6s4p3d1f1g pattern {711111/2111/211/2/1}
 Group   3 Type O   : 12s5p4d2f1g contracted to 6s4p3d1f1g pattern {711111/2111/211/2/1}
 Group   4 Type F   : 12s5p4d2f1g contracted to 6s4p3d1f1g pattern {711111/2111/211/2/1}
 Group   5 Type H   : 5s2p1d contracted to 3s1p1d pattern {311/2/1}

Atom   0C    basis set group =>   1
Atom   1N    basis set group =>   2
Atom   2C    basis set group =>   1
Atom   3C    basis set group =>   1
Atom   4C    basis set group =>   1
Atom   5C    basis set group =>   1
Atom   6C    basis set group =>   1
Atom   7C    basis set group =>   1
Atom   8C    basis set group =>   1
Atom   9C    basis set group =>   1
Atom  10C    basis set group =>   1
Atom  11O    basis set group =>   3
Atom  12C    basis set group =>   1
Atom  13C    basis set group =>   1
Atom  14C    basis set group =>   1
Atom  15C    basis set group =>   1
Atom  16C    basis set group =>   1
Atom  17C    basis set group =>   1
Atom  18C    basis set group =>   1
Atom  19F    basis set group =>   4
Atom  20F    basis set group =>   4
Atom  21F    basis set group =>   4
Atom  22H    basis set group =>   5
Atom  23H    basis set group =>   5
Atom  24H    basis set group =>   5
Atom  25H    basis set group =>   5
Atom  26H    basis set group =>   5
Atom  27H    basis set group =>   5
Atom  28H    basis set group =>   5
Atom  29H    basis set group =>   5
Atom  30H    basis set group =>   5
Atom  31H    basis set group =>   5
Atom  32H    basis set group =>   5
Atom  33H    basis set group =>   5
Atom  34H    basis set group =>   5
Atom  35H    basis set group =>   5
Atom  36H    basis set group =>   5
Atom  37H    basis set group =>   5
Atom  38H    basis set group =>   5
Atom  39H    basis set group =>   5
Atom  40H    basis set group =>   5


           ************************************************************
           *        Program running with 8 parallel MPI-processes     *
           *              working on a common directory               *
           ************************************************************
------------------------------------------------------------------------------
                           ORCA GTO INTEGRAL CALCULATION
                           -- RI-GTO INTEGRALS CHOSEN --
------------------------------------------------------------------------------
------------------------------------------------------------------------------
                   ___                                                        
                  /   \      - P O W E R E D   B Y -                         
                 /     \                                                     
                 |  |  |   _    _      __       _____    __    __             
                 |  |  |  | |  | |    /  \     |  _  \  |  |  /  |          
                  \  \/   | |  | |   /    \    | | | |  |  | /  /          
                 / \  \   | |__| |  /  /\  \   | |_| |  |  |/  /          
                |  |  |   |  __  | /  /__\  \  |    /   |      \           
                |  |  |   | |  | | |   __   |  |    \   |  |\   \          
                \     /   | |  | | |  |  |  |  | |\  \  |  | \   \       
                 \___/    |_|  |_| |__|  |__|  |_| \__\ |__|  \__/        
                                                                              
                      - O R C A' S   B I G   F R I E N D -                    
                                      &                                       
                       - I N T E G R A L  F E E D E R -                       
                                                                              
 v1 FN, 2020, v2 2021                                                         
------------------------------------------------------------------------------


Reading SHARK input file Fluoxetine_1.SHARKINP.tmp ... ok
----------------------
SHARK INTEGRAL PACKAGE
----------------------

Number of atoms                             ...     41
Number of basis functions                   ...    948
Number of shells                            ...    356
Maximum angular momentum                    ...      3
Integral batch strategy                     ... SHARK/LIBINT Hybrid
RI-J (if used) integral strategy            ... SPLIT-RIJ (Revised 2003 algorithm where possible)
Printlevel                                  ...      1
Contraction scheme used                     ... SEGMENTED contraction
Coulomb Range Separation                    ... NOT USED
Exchange Range Separation                   ... Long Range
   Mu parameter                             ...  0.250000
   Scaling (regular/separated)              ...  0.195728  0.804272
Finite Nucleus Model                        ... NOT USED
Auxiliary Coulomb fitting basis             ... AVAILABLE
   # of basis functions in Aux-J            ...   1287
   # of shells in Aux-J                     ...    425
   Maximum angular momentum in Aux-J        ...      4
Auxiliary J/K fitting basis                 ... NOT available
Auxiliary Correlation fitting basis         ... NOT available
Auxiliary 'external' fitting basis          ... NOT available
Integral threshold                          ...     2.500000e-11
Primitive cut-off                           ...     2.500000e-12
Primitive pair pre-selection threshold      ...     2.500000e-12

Calculating pre-screening integrals         ... done (  0.1 sec) Dimension = 356
Organizing shell pair data                  ... done (  0.3 sec)
Shell pair information
Total number of shell pairs                 ...     63546
Shell pairs after pre-screening             ...     43153
Total number of primitive shell pairs       ...    176069
Primitive shell pairs kept                  ...     82041
          la=0 lb=0:   9592 shell pairs
          la=1 lb=0:  12415 shell pairs
          la=1 lb=1:   4072 shell pairs
          la=2 lb=0:   6691 shell pairs
          la=2 lb=1:   4396 shell pairs
          la=2 lb=2:   1183 shell pairs
          la=3 lb=0:   2306 shell pairs
          la=3 lb=1:   1533 shell pairs
          la=3 lb=2:    811 shell pairs
          la=3 lb=3:    154 shell pairs

Calculating one electron integrals          ... done (  0.1 sec)
Calculating RI/J V-Matrix + Cholesky decomp.... done (  0.2 sec)
Calculating Nuclear repulsion               ... done (  0.0 sec) ENN=   1846.295519792089 Eh

SHARK setup successfully completed in   1.2 seconds

Maximum memory used throughout the entire GTOINT-calculation: 66.0 MB
[1695247011.145651] [nc30413:2515957:0]          mpool.c:42   UCX  WARN  object 0xb9c89c0 was not returned to mpool ucp_requests
[1695247011.145673] [nc30413:2515957:0]          mpool.c:42   UCX  WARN  object 0xb9c8b80 was not returned to mpool ucp_requests
[1695247011.145676] [nc30413:2515957:0]          mpool.c:42   UCX  WARN  object 0xb9c8d40 was not returned to mpool ucp_requests
[1695247011.145679] [nc30413:2515957:0]          mpool.c:42   UCX  WARN  object 0xb9c8f00 was not returned to mpool ucp_requests
[1695247011.145681] [nc30413:2515957:0]          mpool.c:42   UCX  WARN  object 0xb9c90c0 was not returned to mpool ucp_requests
[1695247011.145684] [nc30413:2515957:0]          mpool.c:42   UCX  WARN  object 0xb9c9280 was not returned to mpool ucp_requests
[1695247011.145686] [nc30413:2515957:0]          mpool.c:42   UCX  WARN  object 0xb9c9440 was not returned to mpool ucp_requests
[1695247011.145688] [nc30413:2515957:0]          mpool.c:42   UCX  WARN  object 0xb9c9600 was not returned to mpool ucp_requests
[1695247011.145690] [nc30413:2515957:0]          mpool.c:42   UCX  WARN  object 0xb9c97c0 was not returned to mpool ucp_requests
[1695247011.145693] [nc30413:2515957:0]          mpool.c:42   UCX  WARN  object 0xb9c9980 was not returned to mpool ucp_requests
[1695247011.155292] [nc30413:2515959:0]          mpool.c:42   UCX  WARN  object 0xa5d92c0 was not returned to mpool ucp_requests
[1695247011.155302] [nc30413:2515959:0]          mpool.c:42   UCX  WARN  object 0xa5d9480 was not returned to mpool ucp_requests
[1695247011.155307] [nc30413:2515959:0]          mpool.c:42   UCX  WARN  object 0xa5d9640 was not returned to mpool ucp_requests
[1695247011.155312] [nc30413:2515959:0]          mpool.c:42   UCX  WARN  object 0xa5d9800 was not returned to mpool ucp_requests
[1695247011.155314] [nc30413:2515959:0]          mpool.c:42   UCX  WARN  object 0xa5d99c0 was not returned to mpool ucp_requests
[1695247011.155317] [nc30413:2515959:0]          mpool.c:42   UCX  WARN  object 0xa5d9b80 was not returned to mpool ucp_requests
[1695247011.155319] [nc30413:2515959:0]          mpool.c:42   UCX  WARN  object 0xa5d9d40 was not returned to mpool ucp_requests
[1695247011.155322] [nc30413:2515959:0]          mpool.c:42   UCX  WARN  object 0xa5d9f00 was not returned to mpool ucp_requests
[1695247011.155324] [nc30413:2515959:0]          mpool.c:42   UCX  WARN  object 0xa5da0c0 was not returned to mpool ucp_requests
[1695247011.155326] [nc30413:2515959:0]          mpool.c:42   UCX  WARN  object 0xa5da280 was not returned to mpool ucp_requests
[1695247011.155478] [nc30413:2515961:0]          mpool.c:42   UCX  WARN  object 0xaeef140 was not returned to mpool ucp_requests
[1695247011.155499] [nc30413:2515961:0]          mpool.c:42   UCX  WARN  object 0xaeef300 was not returned to mpool ucp_requests
[1695247011.155504] [nc30413:2515961:0]          mpool.c:42   UCX  WARN  object 0xaeef4c0 was not returned to mpool ucp_requests
[1695247011.155509] [nc30413:2515961:0]          mpool.c:42   UCX  WARN  object 0xaeef680 was not returned to mpool ucp_requests
[1695247011.155514] [nc30413:2515961:0]          mpool.c:42   UCX  WARN  object 0xaeef840 was not returned to mpool ucp_requests
[1695247011.155518] [nc30413:2515961:0]          mpool.c:42   UCX  WARN  object 0xaeefa00 was not returned to mpool ucp_requests
[1695247011.155522] [nc30413:2515961:0]          mpool.c:42   UCX  WARN  object 0xaeefbc0 was not returned to mpool ucp_requests
[1695247011.155526] [nc30413:2515961:0]          mpool.c:42   UCX  WARN  object 0xaeefd80 was not returned to mpool ucp_requests
[1695247011.155531] [nc30413:2515961:0]          mpool.c:42   UCX  WARN  object 0xaeeff40 was not returned to mpool ucp_requests
[1695247011.155538] [nc30413:2515961:0]          mpool.c:42   UCX  WARN  object 0xaef0100 was not returned to mpool ucp_requests
[1695247011.155525] [nc30413:2515956:0]          mpool.c:42   UCX  WARN  object 0xc2d8340 was not returned to mpool ucp_requests
[1695247011.155545] [nc30413:2515956:0]          mpool.c:42   UCX  WARN  object 0xc2d8500 was not returned to mpool ucp_requests
[1695247011.155550] [nc30413:2515956:0]          mpool.c:42   UCX  WARN  object 0xc2d86c0 was not returned to mpool ucp_requests
[1695247011.155555] [nc30413:2515956:0]          mpool.c:42   UCX  WARN  object 0xc2d8a40 was not returned to mpool ucp_requests
[1695247011.155559] [nc30413:2515956:0]          mpool.c:42   UCX  WARN  object 0xc2d8c00 was not returned to mpool ucp_requests
[1695247011.155563] [nc30413:2515956:0]          mpool.c:42   UCX  WARN  object 0xc2d8dc0 was not returned to mpool ucp_requests
[1695247011.155774] [nc30413:2515962:0]          mpool.c:42   UCX  WARN  object 0xa9b9c40 was not returned to mpool ucp_requests
[1695247011.155792] [nc30413:2515962:0]          mpool.c:42   UCX  WARN  object 0xa9b9e00 was not returned to mpool ucp_requests
[1695247011.155796] [nc30413:2515962:0]          mpool.c:42   UCX  WARN  object 0xa9b9fc0 was not returned to mpool ucp_requests
[1695247011.155800] [nc30413:2515962:0]          mpool.c:42   UCX  WARN  object 0xa9ba180 was not returned to mpool ucp_requests
[1695247011.155804] [nc30413:2515962:0]          mpool.c:42   UCX  WARN  object 0xa9ba340 was not returned to mpool ucp_requests
[1695247011.155807] [nc30413:2515962:0]          mpool.c:42   UCX  WARN  object 0xa9ba500 was not returned to mpool ucp_requests
[1695247011.155812] [nc30413:2515962:0]          mpool.c:42   UCX  WARN  object 0xa9ba6c0 was not returned to mpool ucp_requests
[1695247011.155817] [nc30413:2515962:0]          mpool.c:42   UCX  WARN  object 0xa9ba880 was not returned to mpool ucp_requests
[1695247011.155820] [nc30413:2515962:0]          mpool.c:42   UCX  WARN  object 0xa9baa40 was not returned to mpool ucp_requests
[1695247011.155824] [nc30413:2515962:0]          mpool.c:42   UCX  WARN  object 0xa9bac00 was not returned to mpool ucp_requests
[1695247011.156119] [nc30413:2515960:0]          mpool.c:42   UCX  WARN  object 0xa48d540 was not returned to mpool ucp_requests
[1695247011.156137] [nc30413:2515960:0]          mpool.c:42   UCX  WARN  object 0xa48d700 was not returned to mpool ucp_requests
[1695247011.156142] [nc30413:2515960:0]          mpool.c:42   UCX  WARN  object 0xa48d8c0 was not returned to mpool ucp_requests
[1695247011.156146] [nc30413:2515960:0]          mpool.c:42   UCX  WARN  object 0xa48da80 was not returned to mpool ucp_requests
[1695247011.156149] [nc30413:2515960:0]          mpool.c:42   UCX  WARN  object 0xa48dc40 was not returned to mpool ucp_requests
[1695247011.156153] [nc30413:2515960:0]          mpool.c:42   UCX  WARN  object 0xa48de00 was not returned to mpool ucp_requests
[1695247011.156157] [nc30413:2515960:0]          mpool.c:42   UCX  WARN  object 0xa48dfc0 was not returned to mpool ucp_requests
[1695247011.156161] [nc30413:2515960:0]          mpool.c:42   UCX  WARN  object 0xa48e180 was not returned to mpool ucp_requests
[1695247011.156164] [nc30413:2515960:0]          mpool.c:42   UCX  WARN  object 0xa48e340 was not returned to mpool ucp_requests
[1695247011.156167] [nc30413:2515960:0]          mpool.c:42   UCX  WARN  object 0xa48e500 was not returned to mpool ucp_requests
[1695247011.157027] [nc30413:2515958:0]          mpool.c:42   UCX  WARN  object 0xaed9d40 was not returned to mpool ucp_requests
[1695247011.157040] [nc30413:2515958:0]          mpool.c:42   UCX  WARN  object 0xaed9f00 was not returned to mpool ucp_requests
[1695247011.157044] [nc30413:2515958:0]          mpool.c:42   UCX  WARN  object 0xaeda0c0 was not returned to mpool ucp_requests
[1695247011.157046] [nc30413:2515958:0]          mpool.c:42   UCX  WARN  object 0xaeda280 was not returned to mpool ucp_requests
[1695247011.157049] [nc30413:2515958:0]          mpool.c:42   UCX  WARN  object 0xaeda440 was not returned to mpool ucp_requests
[1695247011.157051] [nc30413:2515958:0]          mpool.c:42   UCX  WARN  object 0xaeda600 was not returned to mpool ucp_requests
[1695247011.157054] [nc30413:2515958:0]          mpool.c:42   UCX  WARN  object 0xaeda7c0 was not returned to mpool ucp_requests
[1695247011.157058] [nc30413:2515958:0]          mpool.c:42   UCX  WARN  object 0xaeda980 was not returned to mpool ucp_requests
[1695247011.157061] [nc30413:2515958:0]          mpool.c:42   UCX  WARN  object 0xaedab40 was not returned to mpool ucp_requests
[1695247011.157064] [nc30413:2515958:0]          mpool.c:42   UCX  WARN  object 0xaedad00 was not returned to mpool ucp_requests


           ************************************************************
           *        Program running with 8 parallel MPI-processes     *
           *              working on a common directory               *
           ************************************************************
-------------------------------------------------------------------------------
                                 ORCA SCF
-------------------------------------------------------------------------------

------------
SCF SETTINGS
------------
Hamiltonian:
 Density Functional     Method          .... DFT(GTOs)
 Exchange Functional    Exchange        .... WB97X-D3
 Correlation Functional Correlation     .... WB97X-D3
 Gradients option       PostSCFGGA      .... off
 Hybrid DFT is turned on
   Fraction HF Exchange ScalHFX         ....  0.195728
   Scaling of DF-GGA-X  ScalDFX         ....  0.000000
   Scaling of DF-GGA-C  ScalDFC         ....  1.000000
   Scaling of DF-LDA-C  ScalLDAC        ....  1.000000
   Perturbative correction              ....  0.000000
   Density functional embedding theory  .... OFF
 Long-range corrected/Screened/Range-Separated Hybrid DFT is turned on
   Amount of maximum screened exact exchange              ....  0.804272
   Range separation parameter mu (erf(mu*r12)/r12)        ....  0.250000
 RI-approximation to the Coulomb term is turned on
   Number of AuxJ basis functions       .... 1287
   RIJ-COSX (HFX calculated with COS-X)).... on


General Settings:
 Integral files         IntName         .... Fluoxetine_1
 Hartree-Fock type      HFTyp           .... RHF
 Total Charge           Charge          ....    1
 Multiplicity           Mult            ....    1
 Number of Electrons    NEL             ....  162
 Basis Dimension        Dim             ....  948
 Nuclear Repulsion      ENuc            ....   1846.2955197921 Eh

Convergence Acceleration:
 DIIS                   CNVDIIS         .... on
   Start iteration      DIISMaxIt       ....    12
   Startup error        DIISStart       ....  0.200000
   # of expansion vecs  DIISMaxEq       ....     5
   Bias factor          DIISBfac        ....   1.050
   Max. coefficient     DIISMaxC        ....  10.000
 Trust-Rad. Augm. Hess. CNVTRAH         .... auto
   Auto Start mean grad. ratio tolernc. ....  1.125000
   Auto Start start iteration           ....    20
   Auto Start num. interpolation iter.  ....    10
   Max. Number of Micro iterations      ....    16
   Max. Number of Macro iterations      .... Maxiter - #DIIS iter
   Number of Davidson start vectors     ....     2
   Converg. threshold I  (grad. norm)   ....   1.000e-05
   Converg. threshold II (energy diff.) ....   1.000e-08
   Grad. Scal. Fac. for Micro threshold ....   0.100
   Minimum threshold for Micro iter.    ....   0.010
   NR start threshold (gradient norm)   ....   0.001
   Initial trust radius                 ....   0.400
   Minimum AH scaling param. (alpha)    ....   1.000
   Maximum AH scaling param. (alpha)    .... 1000.000
   Orbital update algorithm             .... Taylor
   White noise on init. David. guess    .... on
   Maximum white noise                  ....   0.010
   Quad. conv. algorithm                .... NR
 SOSCF                  CNVSOSCF        .... on
   Start iteration      SOSCFMaxIt      ....   150
   Startup grad/error   SOSCFStart      ....  0.003300
 Level Shifting         CNVShift        .... on
   Level shift para.    LevelShift      ....    0.2500
   Turn off err/grad.   ShiftErr        ....    0.0010
 Zerner damping         CNVZerner       .... off
 Static damping         CNVDamp         .... on
   Fraction old density DampFac         ....    0.7000
   Max. Damping (<1)    DampMax         ....    0.9800
   Min. Damping (>=0)   DampMin         ....    0.0000
   Turn off err/grad.   DampErr         ....    0.1000
 Fernandez-Rico         CNVRico         .... off

SCF Procedure:
 Maximum # iterations   MaxIter         ....   125
 SCF integral mode      SCFMode         .... Direct
   Integral package                     .... SHARK and LIBINT hybrid scheme
 Reset frequency        DirectResetFreq ....    20
 Integral Threshold     Thresh          ....  2.500e-11 Eh
 Primitive CutOff       TCut            ....  2.500e-12 Eh

Convergence Tolerance:
 Convergence Check Mode ConvCheckMode   .... Total+1el-Energy
 Convergence forced     ConvForced      .... 0
 Energy Change          TolE            ....  1.000e-08 Eh
 1-El. energy change                    ....  1.000e-05 Eh
 Orbital Gradient       TolG            ....  1.000e-05
 Orbital Rotation angle TolX            ....  1.000e-05
 DIIS Error             TolErr          ....  5.000e-07


Diagonalization of the overlap matrix:
Smallest eigenvalue                        ... 5.630e-06
Time for diagonalization                   ...    0.156 sec
Threshold for overlap eigenvalues          ... 1.000e-08
Number of eigenvalues below threshold      ... 0
Time for construction of square roots      ...    0.099 sec
Total time needed                          ...    0.259 sec

Time for model grid setup =    0.292 sec

------------------------------
INITIAL GUESS: MODEL POTENTIAL
------------------------------
Loading Hartree-Fock densities                     ... done
Calculating cut-offs                               ... done
Initializing the effective Hamiltonian             ... done
Setting up the integral package (SHARK)            ... done
Starting the Coulomb interaction                   ... done (   0.6 sec)
Reading the grid                                   ... done
Mapping shells                                     ... done
Starting the XC term evaluation                    ... done (   0.3 sec)
  promolecular density results
     # of electrons  =    162.987862692
     EX              =   -137.404491131
     EC              =     -5.523804859
     EX+EC           =   -142.928295990
Transforming the Hamiltonian                       ... done (   0.1 sec)
Diagonalizing the Hamiltonian                      ... done (   0.2 sec)
Back transforming the eigenvectors                 ... done (   0.0 sec)
Now organizing SCF variables                       ... done
                      ------------------
                      INITIAL GUESS DONE (   1.5 sec)
                      ------------------
-------------------
DFT GRID GENERATION
-------------------

General Integration Accuracy     IntAcc      ... 4.959
Radial Grid Type                 RadialGrid  ... OptM3 with GC (2021)
Angular Grid (max. ang.)         AngularGrid ... 6 (Lebedev-590)
Angular grid pruning method      GridPruning ... 4 (adaptive)
Weight generation scheme         WeightScheme... Becke
Basis function cutoff            BFCut       ... 1.0000e-11
Integration weight cutoff        WCut        ... 1.0000e-14
Angular grids for H and He will be reduced by one unit
Partially contracted basis set               ... off
Rotationally invariant grid construction     ... off

Total number of grid points                  ...   472417
Total number of batches                      ...     7403
Average number of points per batch           ...       63
Average number of grid points per atom       ...    11522
Time for grid setup =    5.578 sec

--------------------
COSX GRID GENERATION
--------------------

GRIDX 1
-------
General Integration Accuracy     IntAcc      ... 4.020
Radial Grid Type                 RadialGrid  ... OptM3 with GC (2021)
Angular Grid (max. ang.)         AngularGrid ... 2 (Lebedev-110)
Angular grid pruning method      GridPruning ... 4 (adaptive)
Weight generation scheme         WeightScheme... Becke
Basis function cutoff            BFCut       ... 1.0000e-11
Integration weight cutoff        WCut        ... 1.0000e-14
Angular grids for H and He will be reduced by one unit
Partially contracted basis set               ... on
Rotationally invariant grid construction     ... off

Total number of grid points                  ...    52513
Total number of batches                      ...      841
Average number of points per batch           ...       62
Average number of grid points per atom       ...     1281
UseSFitting                                  ... on

GRIDX 2
-------
General Integration Accuracy     IntAcc      ... 4.338
Radial Grid Type                 RadialGrid  ... OptM3 with GC (2021)
Angular Grid (max. ang.)         AngularGrid ... 3 (Lebedev-194)
Angular grid pruning method      GridPruning ... 4 (adaptive)
Weight generation scheme         WeightScheme... Becke
Basis function cutoff            BFCut       ... 1.0000e-11
Integration weight cutoff        WCut        ... 1.0000e-14
Angular grids for H and He will be reduced by one unit
Partially contracted basis set               ... on
Rotationally invariant grid construction     ... off

Total number of grid points                  ...   114636
Total number of batches                      ...     1813
Average number of points per batch           ...       63
Average number of grid points per atom       ...     2796
UseSFitting                                  ... on

GRIDX 3
-------
General Integration Accuracy     IntAcc      ... 4.871
Radial Grid Type                 RadialGrid  ... OptM3 with GC (2021)
Angular Grid (max. ang.)         AngularGrid ... 4 (Lebedev-302)
Angular grid pruning method      GridPruning ... 4 (adaptive)
Weight generation scheme         WeightScheme... Becke
Basis function cutoff            BFCut       ... 1.0000e-11
Integration weight cutoff        WCut        ... 1.0000e-14
Angular grids for H and He will be reduced by one unit
Partially contracted basis set               ... on
Rotationally invariant grid construction     ... off

Total number of grid points                  ...   215272
Total number of batches                      ...     3385
Average number of points per batch           ...       63
Average number of grid points per atom       ...     5251
UseSFitting                                  ... on

Time for X-Grid setup             =    3.560 sec

--------------
SCF ITERATIONS
--------------
ITER       Energy         Delta-E        Max-DP      RMS-DP      [F,P]     Damp
               ***  Starting incremental Fock matrix formation  ***
  0  -1088.2430943748   0.000000000000 0.08797596  0.00047210  0.1481009 0.7000
  1  -1088.4104442584  -0.167349883596 0.08251643  0.00040684  0.0839875 0.7000
                               ***Turning on DIIS***
  2  -1088.4971205739  -0.086676315562 0.19086099  0.00092017  0.0443921 0.0000
  3  -1088.6425020151  -0.145381441168 0.03782260  0.00023228  0.0385555 0.0000
  4  -1088.6616766684  -0.019174653247 0.01246995  0.00008862  0.0056289 0.0000
  5  -1088.6621392885  -0.000462620116 0.00323725  0.00003342  0.0042212 0.0000
                      *** Initiating the SOSCF procedure ***
                           *** Shutting down DIIS ***
                      *** Re-Reading the Fockian *** 
                      *** Removing any level shift *** 
ITER      Energy       Delta-E        Grad      Rot      Max-DP    RMS-DP
  6  -1088.66222668  -0.0000873893  0.000467  0.000467  0.001854  0.000018
               *** Restarting incremental Fock matrix formation ***
  7  -1088.66224649  -0.0000198130  0.000366  0.000937  0.000833  0.000011
  8  -1088.66224994  -0.0000034496  0.000071  0.000421  0.000832  0.000009
  9  -1088.66225093  -0.0000009944  0.000030  0.000064  0.000887  0.000004
 10  -1088.66225114  -0.0000002053  0.000014  0.000035  0.000361  0.000002
 11  -1088.66225115  -0.0000000111  0.000009  0.000027  0.000318  0.000003
                  ***Gradient check signals convergence***
              ***Rediagonalizing the Fockian in SOSCF/NRSCF***

               *****************************************************
               *                     SUCCESS                       *
               *           SCF CONVERGED AFTER  12 CYCLES          *
               *****************************************************

Old exchange energy                            =    -44.810483202 Eh
New exchange energy                            =    -44.810480730 Eh
Exchange energy change after final integration =      0.000002472 Eh
Total energy after final integration           =  -1088.662248696 Eh
Final COS-X integration done in                =    94.528 sec

----------------
TOTAL SCF ENERGY
----------------

Total Energy       :        -1088.66224870 Eh          -29624.00584 eV

Components:
Nuclear Repulsion  :         1846.29551979 Eh           50240.25526 eV
Electronic Energy  :        -2934.95776849 Eh          -79864.26110 eV
One Electron Energy:        -5136.57864489 Eh         -139773.41087 eV
Two Electron Energy:         2201.62087640 Eh           59909.14977 eV
Max COSX asymmetry :            0.00000036 Eh               0.00001 eV

Virial components:
Potential Energy   :        -2172.86402470 Eh          -59126.63605 eV
Kinetic Energy     :         1084.20177601 Eh           29502.63021 eV
Virial Ratio       :            2.00411406


DFT components:
N(Alpha)           :       81.000024891640 electrons
N(Beta)            :       81.000024891640 electrons
N(Total)           :      162.000049783280 electrons
E(XC)              :     -101.246351081172 Eh       
DFET-embed. en.    :        0.000000000000 Eh       

---------------
SCF CONVERGENCE
---------------

  Last Energy change         ...   -1.6321e-08  Tolerance :   1.0000e-08
  Last MAX-Density change    ...    2.1094e-15  Tolerance :   1.0000e-07
  Last RMS-Density change    ...    1.1681e-17  Tolerance :   5.0000e-09
  Last Orbital Gradient      ...    1.8703e-06  Tolerance :   1.0000e-05
  Last Orbital Rotation      ...    1.0544e-05  Tolerance :   1.0000e-05

             **** THE GBW FILE WAS UPDATED (Fluoxetine_1.gbw) ****
             **** DENSITY Fluoxetine_1.scfp WAS UPDATED ****
             **** ENERGY FILE WAS UPDATED (Fluoxetine_1.en.tmp) ****
             **** THE GBW FILE WAS UPDATED (Fluoxetine_1.gbw) ****
             **** DENSITY Fluoxetine_1.scfp WAS UPDATED ****
----------------
ORBITAL ENERGIES
----------------

  NO   OCC          E(Eh)            E(eV) 
   0   2.0000     -24.890489      -677.3046 
   1   2.0000     -24.889716      -677.2836 
   2   2.0000     -24.884173      -677.1328 
   3   2.0000     -19.420571      -528.4606 
   4   2.0000     -14.701238      -400.0410 
   5   2.0000     -10.606526      -288.6182 
   6   2.0000     -10.492367      -285.5118 
   7   2.0000     -10.491941      -285.5002 
   8   2.0000     -10.488108      -285.3959 
   9   2.0000     -10.472570      -284.9731 
  10   2.0000     -10.443750      -284.1889 
  11   2.0000     -10.417391      -283.4716 
  12   2.0000     -10.405459      -283.1469 
  13   2.0000     -10.403234      -283.0864 
  14   2.0000     -10.402290      -283.0607 
  15   2.0000     -10.401898      -283.0500 
  16   2.0000     -10.401695      -283.0445 
  17   2.0000     -10.401340      -283.0349 
  18   2.0000     -10.400560      -283.0136 
  19   2.0000     -10.398090      -282.9464 
  20   2.0000     -10.396399      -282.9004 
  21   2.0000     -10.393015      -282.8083 
  22   2.0000      -1.508739       -41.0549 
  23   2.0000      -1.418056       -38.5873 
  24   2.0000      -1.411920       -38.4203 
  25   2.0000      -1.339958       -36.4621 
  26   2.0000      -1.289267       -35.0827 
  27   2.0000      -1.116632       -30.3851 
  28   2.0000      -1.103406       -30.0252 
  29   2.0000      -1.077254       -29.3136 
  30   2.0000      -1.023789       -27.8587 
  31   2.0000      -1.002971       -27.2922 
  32   2.0000      -0.991769       -26.9874 
  33   2.0000      -0.987845       -26.8806 
  34   2.0000      -0.984575       -26.7917 
  35   2.0000      -0.954019       -25.9602 
  36   2.0000      -0.906934       -24.6789 
  37   2.0000      -0.888925       -24.1889 
  38   2.0000      -0.870494       -23.6874 
  39   2.0000      -0.851236       -23.1633 
  40   2.0000      -0.841424       -22.8963 
  41   2.0000      -0.837887       -22.8001 
  42   2.0000      -0.814274       -22.1575 
  43   2.0000      -0.786584       -21.4040 
  44   2.0000      -0.778691       -21.1893 
  45   2.0000      -0.773911       -21.0592 
  46   2.0000      -0.773213       -21.0402 
  47   2.0000      -0.772205       -21.0128 
  48   2.0000      -0.759034       -20.6544 
  49   2.0000      -0.743139       -20.2218 
  50   2.0000      -0.724086       -19.7034 
  51   2.0000      -0.711380       -19.3576 
  52   2.0000      -0.690670       -18.7941 
  53   2.0000      -0.682434       -18.5700 
  54   2.0000      -0.675082       -18.3699 
  55   2.0000      -0.672366       -18.2960 
  56   2.0000      -0.668708       -18.1965 
  57   2.0000      -0.665378       -18.1059 
  58   2.0000      -0.651901       -17.7391 
  59   2.0000      -0.649816       -17.6824 
  60   2.0000      -0.648185       -17.6380 
  61   2.0000      -0.645300       -17.5595 
  62   2.0000      -0.642191       -17.4749 
  63   2.0000      -0.637229       -17.3399 
  64   2.0000      -0.629453       -17.1283 
  65   2.0000      -0.627395       -17.0723 
  66   2.0000      -0.612483       -16.6665 
  67   2.0000      -0.604671       -16.4539 
  68   2.0000      -0.602171       -16.3859 
  69   2.0000      -0.600838       -16.3496 
  70   2.0000      -0.585298       -15.9268 
  71   2.0000      -0.581225       -15.8159 
  72   2.0000      -0.568822       -15.4784 
  73   2.0000      -0.560119       -15.2416 
  74   2.0000      -0.555836       -15.1251 
  75   2.0000      -0.551456       -15.0059 
  76   2.0000      -0.545980       -14.8569 
  77   2.0000      -0.469881       -12.7861 
  78   2.0000      -0.462879       -12.5956 
  79   2.0000      -0.455938       -12.4067 
  80   2.0000      -0.442247       -12.0342 
  81   0.0000      -0.069932        -1.9029 
  82   0.0000      -0.065022        -1.7693 
  83   0.0000      -0.057241        -1.5576 
  84   0.0000      -0.052509        -1.4288 
  85   0.0000      -0.051190        -1.3930 
  86   0.0000      -0.015176        -0.4130 
  87   0.0000      -0.006588        -0.1793 
  88   0.0000       0.008175         0.2224 
  89   0.0000       0.018303         0.4980 
  90   0.0000       0.019676         0.5354 
  91   0.0000       0.025758         0.7009 
  92   0.0000       0.030805         0.8382 
  93   0.0000       0.040879         1.1124 
  94   0.0000       0.046362         1.2616 
  95   0.0000       0.053743         1.4624 
  96   0.0000       0.057586         1.5670 
  97   0.0000       0.066043         1.7971 
  98   0.0000       0.071575         1.9477 
  99   0.0000       0.077566         2.1107 
 100   0.0000       0.083643         2.2761 
 101   0.0000       0.085794         2.3346 
 102   0.0000       0.089469         2.4346 
 103   0.0000       0.089718         2.4413 
 104   0.0000       0.098051         2.6681 
 105   0.0000       0.106214         2.8902 
 106   0.0000       0.110150         2.9973 
 107   0.0000       0.114003         3.1022 
 108   0.0000       0.117694         3.2026 
 109   0.0000       0.129000         3.5103 
 110   0.0000       0.131287         3.5725 
 111   0.0000       0.139999         3.8096 
 112   0.0000       0.143226         3.8974 
 113   0.0000       0.150517         4.0958 
 114   0.0000       0.153592         4.1794 
 115   0.0000       0.157782         4.2935 
 116   0.0000       0.163075         4.4375 
 117   0.0000       0.167400         4.5552 
 118   0.0000       0.168820         4.5938 
 119   0.0000       0.177606         4.8329 
 120   0.0000       0.178823         4.8660 
 121   0.0000       0.182045         4.9537 
 122   0.0000       0.189785         5.1643 
 123   0.0000       0.192207         5.2302 
 124   0.0000       0.199824         5.4375 
 125   0.0000       0.206185         5.6106 
 126   0.0000       0.210929         5.7397 
 127   0.0000       0.211647         5.7592 
 128   0.0000       0.217965         5.9311 
 129   0.0000       0.222246         6.0476 
 130   0.0000       0.224916         6.1203 
 131   0.0000       0.230977         6.2852 
 132   0.0000       0.234588         6.3835 
 133   0.0000       0.244537         6.6542 
 134   0.0000       0.246428         6.7057 
 135   0.0000       0.249609         6.7922 
 136   0.0000       0.258957         7.0466 
 137   0.0000       0.263228         7.1628 
 138   0.0000       0.267084         7.2677 
 139   0.0000       0.272006         7.4016 
 140   0.0000       0.276769         7.5313 
 141   0.0000       0.281023         7.6470 
 142   0.0000       0.289646         7.8817 
 143   0.0000       0.291078         7.9206 
 144   0.0000       0.295048         8.0287 
 145   0.0000       0.297228         8.0880 
 146   0.0000       0.304132         8.2759 
 147   0.0000       0.307951         8.3798 
 148   0.0000       0.311615         8.4795 
 149   0.0000       0.315606         8.5881 
 150   0.0000       0.320755         8.7282 
 151   0.0000       0.324274         8.8240 
 152   0.0000       0.327917         8.9231 
 153   0.0000       0.334594         9.1048 
 154   0.0000       0.341551         9.2941 
 155   0.0000       0.344984         9.3875 
 156   0.0000       0.348775         9.4907 
 157   0.0000       0.353166         9.6101 
 158   0.0000       0.357934         9.7399 
 159   0.0000       0.361100         9.8260 
 160   0.0000       0.361603         9.8397 
 161   0.0000       0.366671         9.9776 
 162   0.0000       0.367214         9.9924 
 163   0.0000       0.373956        10.1759 
 164   0.0000       0.378377        10.2962 
 165   0.0000       0.380204        10.3459 
 166   0.0000       0.383929        10.4472 
 167   0.0000       0.390811        10.6345 
 168   0.0000       0.395592        10.7646 
 169   0.0000       0.396808        10.7977 
[...]
 11:     61.04   0.000571    2.88  0.002918  (-0.042352  0.033528 -0.000715)
 12:     84.55   0.000369    1.87  0.001363  (-0.030243  0.009759 -0.018791)
 13:    112.00   0.000657    3.32  0.001829  ( 0.006170  0.022911  0.035585)
 14:    119.13   0.000437    2.21  0.001145  (-0.030617 -0.001827 -0.014306)
 15:    156.73   0.002061   10.41  0.004103  ( 0.056410 -0.030344  0.000112)
 16:    191.64   0.000439    2.22  0.000715  ( 0.024861 -0.005789  0.007954)
 17:    204.21   0.000840    4.24  0.001284  (-0.009204  0.032747 -0.011244)
 18:    214.69   0.000391    1.98  0.000568  ( 0.003616 -0.015423  0.017820)
 19:    243.17   0.003441   17.39  0.004416  (-0.038051  0.054133 -0.006172)
 20:    268.39   0.000774    3.91  0.000900  (-0.022082  0.008110 -0.018617)
 21:    280.19   0.001001    5.06  0.001115  ( 0.021463 -0.020532  0.015242)
 22:    302.80   0.000161    0.81  0.000166  (-0.002719  0.004994  0.011544)
 23:    329.32   0.000487    2.46  0.000462  (-0.016391 -0.001596 -0.013810)
 24:    370.13   0.000451    2.28  0.000380  (-0.002673 -0.014970  0.012217)
 25:    404.68   0.000934    4.72  0.000720  ( 0.013456 -0.022059  0.007260)
 26:    412.55   0.001318    6.66  0.000997  (-0.025790  0.011513 -0.014104)
 27:    418.69   0.000148    0.75  0.000110  (-0.002121  0.008988 -0.004991)
 28:    421.80   0.000093    0.47  0.000069  ( 0.005073  0.003019 -0.005827)
 29:    428.79   0.000048    0.24  0.000035  ( 0.003216  0.000900 -0.004879)
 30:    501.49   0.001468    7.42  0.000914  (-0.028477  0.009454  0.003668)
 31:    517.91   0.000404    2.04  0.000244  ( 0.010937  0.004644  0.010117)
 32:    524.95   0.000441    2.23  0.000262  (-0.001315 -0.003299 -0.015805)
 33:    567.74   0.000288    1.45  0.000158  (-0.001907  0.012016  0.003163)
 34:    585.68   0.000040    0.20  0.000021  (-0.004530  0.000783 -0.000326)
 35:    607.19   0.002957   14.94  0.001520  ( 0.016997  0.009649  0.033728)
 36:    632.27   0.002700   13.64  0.001332  (-0.028860  0.020758  0.008286)
 37:    636.58   0.000084    0.43  0.000041  ( 0.001629 -0.005491  0.002933)
 38:    659.54   0.002696   13.62  0.001276  (-0.034745  0.007439  0.003599)
 39:    684.74   0.002659   13.44  0.001212  (-0.034261 -0.004633 -0.004085)
 40:    734.38   0.008229   41.59  0.003497  ( 0.053568 -0.022870  0.010206)
 41:    764.40   0.000142    0.72  0.000058  (-0.003092 -0.006232 -0.003123)
 42:    769.67   0.000526    2.66  0.000213  ( 0.009961  0.001352  0.010592)
 43:    780.43   0.008899   44.97  0.003558  (-0.048054  0.033304 -0.011840)
 44:    816.02   0.000617    3.12  0.000236  (-0.002654 -0.010698 -0.010701)
 45:    826.40   0.004424   22.36  0.001671  ( 0.028446 -0.027681 -0.009760)
 46:    843.80   0.000156    0.79  0.000058  ( 0.000005  0.007186  0.002473)
 47:    849.69   0.000247    1.25  0.000091  ( 0.003274  0.005782  0.006818)
 48:    867.18   0.004220   21.33  0.001519  (-0.027409  0.016721  0.022087)
 49:    872.72   0.011042   55.80  0.003948  ( 0.021014  0.020627  0.055510)
 50:    886.59   0.000219    1.11  0.000077  ( 0.007571  0.002615  0.003614)
 51:    939.11   0.001110    5.61  0.000369  (-0.019047 -0.002210  0.001016)
 52:    968.08   0.001345    6.80  0.000434  ( 0.015295 -0.013987  0.001988)
 53:    973.79   0.004767   24.09  0.001528  ( 0.037033 -0.011935  0.003716)
 54:    998.63   0.000776    3.92  0.000242  ( 0.004637 -0.005113 -0.013953)
 55:   1015.62   0.000015    0.07  0.000004  ( 0.001972  0.000646  0.000416)
 56:   1025.55   0.000457    2.31  0.000139  ( 0.004278  0.010952 -0.000893)
 57:   1028.67   0.000367    1.86  0.000111  (-0.005008 -0.008931  0.002562)
 58:   1031.40   0.000591    2.99  0.000179  ( 0.009721  0.009105  0.001198)
 59:   1040.20   0.007008   35.42  0.002102  ( 0.045473 -0.004409 -0.003899)
 60:   1051.92   0.002883   14.57  0.000855  (-0.018152 -0.022915  0.000877)
 61:   1053.48   0.000133    0.67  0.000039  (-0.004954 -0.003839 -0.000015)
 62:   1067.32   0.001819    9.19  0.000532  (-0.018667 -0.011115  0.007741)
 63:   1077.10   0.011776   59.51  0.003412  (-0.039407 -0.025518  0.034753)
 64:   1098.22   0.009277   46.88  0.002636  ( 0.047262  0.012888 -0.015372)
 65:   1108.78   0.018282   92.39  0.005145  ( 0.068319 -0.021546 -0.003704)
 66:   1127.28   0.000319    1.61  0.000088  (-0.007313 -0.003729 -0.004579)
 67:   1148.34   0.008701   43.97  0.002364  ( 0.002883 -0.044468  0.019461)
 68:   1156.53   0.000716    3.62  0.000193  (-0.013872 -0.000796 -0.000188)
 69:   1185.91   0.005724   28.93  0.001506  (-0.017050  0.009998  0.033399)
 70:   1186.25   0.046025  232.59  0.012108  (-0.018778 -0.044237 -0.098985)
 71:   1191.34   0.000600    3.03  0.000157  ( 0.012099  0.002493  0.002160)
 72:   1211.45   0.030362  153.44  0.007821  ( 0.058958  0.060393 -0.026413)
 73:   1214.58   0.002126   10.74  0.000546  ( 0.007502 -0.019325  0.010793)
 74:   1218.09   0.014948   75.54  0.003830  ( 0.023321 -0.050146  0.027767)
 75:   1233.11   0.002130   10.76  0.000539  ( 0.001140  0.023187  0.000105)
 76:   1272.12   0.064465  325.78  0.015814  ( 0.125466 -0.008443  0.000959)
 77:   1285.12   0.000713    3.60  0.000173  ( 0.002505  0.012878  0.000985)
 78:   1314.25   0.000588    2.97  0.000140  ( 0.004401  0.008202  0.007279)
 79:   1327.09   0.001716    8.67  0.000403  ( 0.006603  0.014349  0.012408)
 80:   1339.59   0.002027   10.25  0.000472  ( 0.003921  0.018539 -0.010640)
 81:   1348.51   0.017094   86.38  0.003956  ( 0.060110 -0.018394 -0.002047)
 82:   1354.93   0.040240  203.36  0.009268  ( 0.096196  0.003719 -0.000666)
 83:   1359.70   0.024895  125.81  0.005714  (-0.073785  0.013261  0.009674)
 84:   1367.12   0.003230   16.32  0.000737  ( 0.026057 -0.003666  0.006693)
 85:   1386.31   0.000975    4.93  0.000219  ( 0.002140 -0.014633  0.000835)
 86:   1396.79   0.004651   23.50  0.001039  (-0.026813 -0.010339 -0.014602)
 87:   1418.35   0.004588   23.19  0.001010  (-0.016009 -0.018537  0.020238)
 88:   1428.35   0.003278   16.57  0.000716  ( 0.017330 -0.020155 -0.003100)
 89:   1469.07   0.007734   39.08  0.001643  (-0.017888  0.030625 -0.019619)
 90:   1475.02   0.001412    7.13  0.000299  (-0.005098  0.013762 -0.009124)
 91:   1481.20   0.002548   12.88  0.000537  ( 0.005876 -0.009612 -0.020247)
 92:   1486.11   0.005132   25.93  0.001078  ( 0.018867 -0.016057  0.021537)
 93:   1504.85   0.003989   20.16  0.000827  (-0.025879  0.002040  0.012384)
 94:   1505.93   0.005623   28.42  0.001165  (-0.010769  0.031141 -0.008917)
 95:   1512.93   0.008949   45.23  0.001846  (-0.010479  0.027875 -0.030969)
 96:   1514.23   0.002390   12.08  0.000492  ( 0.016719  0.006182  0.013219)
 97:   1552.22   0.001734    8.77  0.000349  (-0.007123 -0.014123 -0.009925)
 98:   1574.90   0.013040   65.90  0.002584  (-0.050575 -0.003811  0.003400)
 99:   1669.92   0.000603    3.05  0.000113  (-0.005911  0.004493 -0.007591)
100:   1678.37   0.003687   18.63  0.000686  ( 0.003382  0.025617 -0.004234)
101:   1681.82   0.009186   46.42  0.001704  (-0.039631 -0.003226 -0.011111)
102:   1688.85   0.000123    0.62  0.000023  (-0.000308 -0.004444  0.001705)
103:   1703.11   0.018614   94.07  0.003411  ( 0.058132  0.003205 -0.004581)
104:   3075.82   0.000794    4.01  0.000081  ( 0.000743 -0.008249  0.003454)
105:   3084.81   0.002349   11.87  0.000238  (-0.001984 -0.007131 -0.013521)
106:   3097.19   0.000420    2.12  0.000042  ( 0.004081 -0.003521  0.003637)
107:   3106.73   0.002025   10.23  0.000203  ( 0.011821 -0.007112  0.003620)
108:   3143.34   0.000602    3.04  0.000060  ( 0.004770  0.005247  0.003080)
109:   3165.76   0.000984    4.97  0.000097  ( 0.007281 -0.006545 -0.001068)
110:   3184.94   0.000793    4.01  0.000078  (-0.000057 -0.004087 -0.007812)
111:   3194.61   0.001232    6.22  0.000120  ( 0.003835  0.009930 -0.002646)
112:   3197.59   0.000778    3.93  0.000076  (-0.007365  0.004487 -0.001260)
113:   3200.07   0.000053    0.27  0.000005  ( 0.002231  0.000003  0.000431)
114:   3208.77   0.002576   13.02  0.000251  (-0.012593  0.009202 -0.002691)
115:   3212.76   0.000164    0.83  0.000016  ( 0.001677  0.003566 -0.000618)
116:   3221.35   0.000957    4.84  0.000093  (-0.003459 -0.003765  0.008160)
117:   3229.34   0.000083    0.42  0.000008  (-0.001775 -0.001717  0.001389)
118:   3232.84   0.000372    1.88  0.000036  ( 0.001919  0.004853  0.002939)
119:   3233.17   0.000296    1.50  0.000029  ( 0.004665 -0.002455  0.000885)
120:   3244.62   0.000171    0.86  0.000016  ( 0.003727 -0.000031 -0.001598)
121:   3262.33   0.116434  588.41  0.011138  ( 0.089437 -0.050744  0.023744)
122:   3518.46   0.014153   71.53  0.001255  (-0.007456  0.033006  0.010505)

* The epsilon (eps) is given for a Dirac delta lineshape.
** The dipole moment derivative (T) already includes vibrational overlap.

The first frequency considered to be a vibration is 6
The total number of vibrations considered is 117


--------------------------
THERMOCHEMISTRY AT 298.15K
--------------------------

Temperature         ... 298.15 K
Pressure            ... 1.00 atm
Total Mass          ... 310.34 AMU

Throughout the following assumptions are being made:
  (1) The electronic state is orbitally nondegenerate
  (2) There are no thermally accessible electronically excited states
  (3) Hindered rotations indicated by low frequency modes are not
      treated as such but are treated as vibrations and this may
      cause some error
  (4) All equations used are the standard statistical mechanics
      equations for an ideal gas
  (5) All vibrations are strictly harmonic

freq.       7.68  E(vib)   ...       0.58 
freq.      21.24  E(vib)   ...       0.56 
freq.      27.86  E(vib)   ...       0.55 
freq.      42.99  E(vib)   ...       0.53 
freq.      46.72  E(vib)   ...       0.53 
freq.      61.04  E(vib)   ...       0.51 
freq.      84.55  E(vib)   ...       0.48 
freq.     112.00  E(vib)   ...       0.45 
freq.     119.13  E(vib)   ...       0.44 
freq.     156.73  E(vib)   ...       0.40 
freq.     191.64  E(vib)   ...       0.36 
freq.     204.21  E(vib)   ...       0.35 
freq.     214.69  E(vib)   ...       0.34 
freq.     243.17  E(vib)   ...       0.31 
freq.     268.39  E(vib)   ...       0.29 
freq.     280.19  E(vib)   ...       0.28 
freq.     302.80  E(vib)   ...       0.26 
freq.     329.32  E(vib)   ...       0.24 
freq.     370.13  E(vib)   ...       0.21 
freq.     404.68  E(vib)   ...       0.19 
freq.     412.55  E(vib)   ...       0.19 
freq.     418.69  E(vib)   ...       0.18 
freq.     421.80  E(vib)   ...       0.18 
freq.     428.79  E(vib)   ...       0.18 
freq.     501.49  E(vib)   ...       0.14 
freq.     517.91  E(vib)   ...       0.13 
freq.     524.95  E(vib)   ...       0.13 
freq.     567.74  E(vib)   ...       0.11 
freq.     585.68  E(vib)   ...       0.11 
freq.     607.19  E(vib)   ...       0.10 
freq.     632.27  E(vib)   ...       0.09 
freq.     636.58  E(vib)   ...       0.09 
freq.     659.54  E(vib)   ...       0.08 
freq.     684.74  E(vib)   ...       0.07 
freq.     734.38  E(vib)   ...       0.06 
freq.     764.40  E(vib)   ...       0.06 
freq.     769.67  E(vib)   ...       0.05 
freq.     780.43  E(vib)   ...       0.05 
freq.     816.02  E(vib)   ...       0.05 
freq.     826.40  E(vib)   ...       0.04 
freq.     843.80  E(vib)   ...       0.04 
freq.     849.69  E(vib)   ...       0.04 
freq.     867.18  E(vib)   ...       0.04 
freq.     872.72  E(vib)   ...       0.04 
freq.     886.59  E(vib)   ...       0.04 
freq.     939.11  E(vib)   ...       0.03 
freq.     968.08  E(vib)   ...       0.03 
freq.     973.79  E(vib)   ...       0.03 
freq.     998.63  E(vib)   ...       0.02 
freq.    1015.62  E(vib)   ...       0.02 
freq.    1025.55  E(vib)   ...       0.02 
freq.    1028.67  E(vib)   ...       0.02 
freq.    1031.40  E(vib)   ...       0.02 
freq.    1040.20  E(vib)   ...       0.02 
freq.    1051.92  E(vib)   ...       0.02 
freq.    1053.48  E(vib)   ...       0.02 
freq.    1067.32  E(vib)   ...       0.02 
freq.    1077.10  E(vib)   ...       0.02 
freq.    1098.22  E(vib)   ...       0.02 
freq.    1108.78  E(vib)   ...       0.02 
freq.    1127.28  E(vib)   ...       0.01 
freq.    1148.34  E(vib)   ...       0.01 
freq.    1156.53  E(vib)   ...       0.01 
freq.    1185.91  E(vib)   ...       0.01 
freq.    1186.25  E(vib)   ...       0.01 
freq.    1191.34  E(vib)   ...       0.01 
freq.    1211.45  E(vib)   ...       0.01 
freq.    1214.58  E(vib)   ...       0.01 
freq.    1218.09  E(vib)   ...       0.01 
freq.    1233.11  E(vib)   ...       0.01 
freq.    1272.12  E(vib)   ...       0.01 
freq.    1285.12  E(vib)   ...       0.01 
freq.    1314.25  E(vib)   ...       0.01 
freq.    1327.09  E(vib)   ...       0.01 
freq.    1339.59  E(vib)   ...       0.01 
freq.    1348.51  E(vib)   ...       0.01 
freq.    1354.93  E(vib)   ...       0.01 
freq.    1359.70  E(vib)   ...       0.01 
freq.    1367.12  E(vib)   ...       0.01 
freq.    1386.31  E(vib)   ...       0.00 
freq.    1396.79  E(vib)   ...       0.00 
freq.    1418.35  E(vib)   ...       0.00 
freq.    1428.35  E(vib)   ...       0.00 
freq.    1469.07  E(vib)   ...       0.00 
freq.    1475.02  E(vib)   ...       0.00 
freq.    1481.20  E(vib)   ...       0.00 
freq.    1486.11  E(vib)   ...       0.00 
freq.    1504.85  E(vib)   ...       0.00 
freq.    1505.93  E(vib)   ...       0.00 
freq.    1512.93  E(vib)   ...       0.00 
freq.    1514.23  E(vib)   ...       0.00 
freq.    1552.22  E(vib)   ...       0.00 
freq.    1574.90  E(vib)   ...       0.00 
freq.    1669.92  E(vib)   ...       0.00 
freq.    1678.37  E(vib)   ...       0.00 
freq.    1681.82  E(vib)   ...       0.00 
freq.    1688.85  E(vib)   ...       0.00 
freq.    1703.11  E(vib)   ...       0.00 
freq.    3075.82  E(vib)   ...       0.00 
freq.    3084.81  E(vib)   ...       0.00 
freq.    3097.19  E(vib)   ...       0.00 
freq.    3106.73  E(vib)   ...       0.00 
freq.    3143.34  E(vib)   ...       0.00 
freq.    3165.76  E(vib)   ...       0.00 
freq.    3184.94  E(vib)   ...       0.00 
freq.    3194.61  E(vib)   ...       0.00 
freq.    3197.59  E(vib)   ...       0.00 
freq.    3200.07  E(vib)   ...       0.00 
freq.    3208.77  E(vib)   ...       0.00 
freq.    3212.76  E(vib)   ...       0.00 
freq.    3221.35  E(vib)   ...       0.00 
freq.    3229.34  E(vib)   ...       0.00 
freq.    3232.84  E(vib)   ...       0.00 
freq.    3233.17  E(vib)   ...       0.00 
freq.    3244.62  E(vib)   ...       0.00 
freq.    3262.33  E(vib)   ...       0.00 
freq.    3518.46  E(vib)   ...       0.00 

------------
INNER ENERGY
------------

The inner energy is: U= E(el) + E(ZPE) + E(vib) + E(rot) + E(trans)
    E(el)   - is the total energy from the electronic structure calculation
              = E(kin-el) + E(nuc-el) + E(el-el) + E(nuc-nuc)
    E(ZPE)  - the the zero temperature vibrational energy from the frequency calculation
    E(vib)  - the the finite temperature correction to E(ZPE) due to population
              of excited vibrational states
    E(rot)  - is the rotational thermal energy
    E(trans)- is the translational thermal energy

Summary of contributions to the inner energy U:
Electronic energy                ...  -1088.68537874 Eh
Zero point energy                ...      0.34027255 Eh     213.52 kcal/mol
Thermal vibrational correction   ...      0.01703504 Eh      10.69 kcal/mol
Thermal rotational correction    ...      0.00141627 Eh       0.89 kcal/mol
Thermal translational correction ...      0.00141627 Eh       0.89 kcal/mol
-----------------------------------------------------------------------
Total thermal energy                  -1088.32523861 Eh


Summary of corrections to the electronic energy:
(perhaps to be used in another calculation)
Total thermal correction                  0.01986758 Eh      12.47 kcal/mol
Non-thermal (ZPE) correction              0.34027255 Eh     213.52 kcal/mol
-----------------------------------------------------------------------
Total correction                          0.36014013 Eh     225.99 kcal/mol


--------
ENTHALPY
--------

The enthalpy is H = U + kB*T
                kB is Boltzmann's constant
Total free energy                 ...  -1088.32523861 Eh 
Thermal Enthalpy correction       ...      0.00094421 Eh       0.59 kcal/mol
-----------------------------------------------------------------------
Total Enthalpy                    ...  -1088.32429440 Eh


Note: Only C1 symmetry has been detected, increase convergence thresholds 
      if your molecule has a higher symmetry. Symmetry factor of 1.0 is   
      used for the rotational entropy correction. 
 

Note: Rotational entropy computed according to Herzberg 
Infrared and Raman Spectra, Chapter V,1, Van Nostrand Reinhold, 1945 
Point Group:  C1, Symmetry Number:   1  
Rotational constants in cm-1:     0.014988     0.004683     0.004056 

Vibrational entropy computed according to the QRRHO of S. Grimme
Chem.Eur.J. 2012 18 9955


-------
ENTROPY
-------

The entropy contributions are T*S = T*(S(el)+S(vib)+S(rot)+S(trans))
     S(el)   - electronic entropy
     S(vib)  - vibrational entropy
     S(rot)  - rotational entropy
     S(trans)- translational entropy
The entropies will be listed as multiplied by the temperature to get
units of energy

Electronic entropy                ...      0.00000000 Eh      0.00 kcal/mol
Vibrational entropy               ...      0.03100425 Eh     19.46 kcal/mol
Rotational entropy                ...      0.01662606 Eh     10.43 kcal/mol
Translational entropy             ...      0.02047516 Eh     12.85 kcal/mol
-----------------------------------------------------------------------
Final entropy term                ...      0.06810547 Eh     42.74 kcal/mol

In case the symmetry of your molecule has not been determined correctly
or in case you have a reason to use a different symmetry number we print 
out the resulting rotational entropy values for sn=1,12 :
 --------------------------------------------------------
|  sn= 1 | S(rot)=       0.01662606 Eh     10.43 kcal/mol|
|  sn= 2 | S(rot)=       0.01597161 Eh     10.02 kcal/mol|
|  sn= 3 | S(rot)=       0.01558877 Eh      9.78 kcal/mol|
|  sn= 4 | S(rot)=       0.01531715 Eh      9.61 kcal/mol|
|  sn= 5 | S(rot)=       0.01510646 Eh      9.48 kcal/mol|
|  sn= 6 | S(rot)=       0.01493432 Eh      9.37 kcal/mol|
|  sn= 7 | S(rot)=       0.01478877 Eh      9.28 kcal/mol|
|  sn= 8 | S(rot)=       0.01466269 Eh      9.20 kcal/mol|
|  sn= 9 | S(rot)=       0.01455149 Eh      9.13 kcal/mol|
|  sn=10 | S(rot)=       0.01445201 Eh      9.07 kcal/mol|
|  sn=11 | S(rot)=       0.01436202 Eh      9.01 kcal/mol|
|  sn=12 | S(rot)=       0.01427986 Eh      8.96 kcal/mol|
 --------------------------------------------------------


-------------------
GIBBS FREE ENERGY
-------------------

The Gibbs free energy is G = H - T*S

Total enthalpy                    ...  -1088.32429440 Eh 
Total entropy correction          ...     -0.06810547 Eh    -42.74 kcal/mol
-----------------------------------------------------------------------
Final Gibbs free energy         ...  -1088.39239988 Eh

For completeness - the Gibbs free energy minus the electronic energy
G-E(el)                           ...      0.29297886 Eh    183.85 kcal/mol


Timings for individual modules:

Sum of individual times         ...    13625.468 sec (= 227.091 min)
GTO integral calculation        ...       26.665 sec (=   0.444 min)   0.2 %
SCF iterations                  ...     5515.320 sec (=  91.922 min)  40.5 %
SCF Gradient evaluation         ...     1425.722 sec (=  23.762 min)  10.5 %
Geometry relaxation             ...        1.432 sec (=   0.024 min)   0.0 %
Analytical frequency calculation...     5212.989 sec (=  86.883 min)  38.3 %
CHELPG charge generation        ...     1443.339 sec (=  24.056 min)  10.6 %
                             ****ORCA TERMINATED NORMALLY****
TOTAL RUN TIME: 0 days 3 hours 47 minutes 19 seconds 917 msec
