 Entering Gaussian System, Link 0=g16
 Initial command:
 /opt/software/gaussian/g16.a03/l1.exe "/localscratch/cieritan.6436204.0/Gau-652.inp" -scrdir="/localscratch/cieritan.6436204.0/"
 Entering Link 1 = /opt/software/gaussian/g16.a03/l1.exe PID=       653.
  
 Copyright (c) 1988,1990,1992,1993,1995,1998,2003,2009,2016,
            Gaussian, Inc.  All Rights Reserved.
  
 This is part of the Gaussian(R) 16 program.  It is based on
 the Gaussian(R) 09 system (copyright 2009, Gaussian, Inc.),
 the Gaussian(R) 03 system (copyright 2003, Gaussian, Inc.),
 the Gaussian(R) 98 system (copyright 1998, Gaussian, Inc.),
 the Gaussian(R) 94 system (copyright 1995, Gaussian, Inc.),
 the Gaussian 92(TM) system (copyright 1992, Gaussian, Inc.),
 the Gaussian 90(TM) system (copyright 1990, Gaussian, Inc.),
 the Gaussian 88(TM) system (copyright 1988, Gaussian, Inc.),
 the Gaussian 86(TM) system (copyright 1986, Carnegie Mellon
 University), and the Gaussian 82(TM) system (copyright 1983,
 Carnegie Mellon University). Gaussian is a federally registered
 trademark of Gaussian, Inc.
  
 This software contains proprietary and confidential information,
 including trade secrets, belonging to Gaussian, Inc.
  
 This software is provided under written license and may be
 used, copied, transmitted, or stored only in accord with that
 written license.
  
 The following legend is applicable only to US Government
 contracts under FAR:
  
                    RESTRICTED RIGHTS LEGEND
  
 Use, reproduction and disclosure by the US Government is
 subject to restrictions as set forth in subparagraphs (a)
 and (c) of the Commercial Computer Software - Restricted
 Rights clause in FAR 52.227-19.
  
 Gaussian, Inc.
 340 Quinnipiac St., Bldg. 40, Wallingford CT 06492
  
  
 ---------------------------------------------------------------
 Warning -- This program may not be used in any manner that
 competes with the business of Gaussian, Inc. or will provide
 assistance to any competitor of Gaussian, Inc.  The licensee
 of this program is prohibited from giving any competitor of
 Gaussian, Inc. access to this program.  By using this program,
 the user acknowledges that Gaussian, Inc. is engaged in the
 business of creating and licensing software in the field of
 computational chemistry and represents and warrants to the
 licensee that it is not a competitor of Gaussian, Inc. and that
 it will not use this program in any manner prohibited above.
 ---------------------------------------------------------------
  

 Cite this work as:
 Gaussian 16, Revision A.03,
 M. J. Frisch, G. W. Trucks, H. B. Schlegel, G. E. Scuseria, 
 M. A. Robb, J. R. Cheeseman, G. Scalmani, V. Barone, 
 G. A. Petersson, H. Nakatsuji, X. Li, M. Caricato, A. V. Marenich, 
 J. Bloino, B. G. Janesko, R. Gomperts, B. Mennucci, H. P. Hratchian, 
 J. V. Ortiz, A. F. Izmaylov, J. L. Sonnenberg, D. Williams-Young, 
 F. Ding, F. Lipparini, F. Egidi, J. Goings, B. Peng, A. Petrone, 
 T. Henderson, D. Ranasinghe, V. G. Zakrzewski, J. Gao, N. Rega, 
 G. Zheng, W. Liang, M. Hada, M. Ehara, K. Toyota, R. Fukuda, 
 J. Hasegawa, M. Ishida, T. Nakajima, Y. Honda, O. Kitao, H. Nakai, 
 T. Vreven, K. Throssell, J. A. Montgomery, Jr., J. E. Peralta, 
 F. Ogliaro, M. J. Bearpark, J. J. Heyd, E. N. Brothers, K. N. Kudin, 
 V. N. Staroverov, T. A. Keith, R. Kobayashi, J. Normand, 
 K. Raghavachari, A. P. Rendell, J. C. Burant, S. S. Iyengar, 
 J. Tomasi, M. Cossi, J. M. Millam, M. Klene, C. Adamo, R. Cammi, 
 J. W. Ochterski, R. L. Martin, K. Morokuma, O. Farkas, 
 J. B. Foresman, and D. J. Fox, Gaussian, Inc., Wallingford CT, 2016.
 
 ******************************************
 Gaussian 16:  ES64L-G16RevA.03 25-Dec-2016
                18-Jul-2018 
 ******************************************
 %rwf=/scratch/cieritan/rwf/AMIFOSTINE_3.rwf
 %chk=/scratch/cieritan/chk/AMIFOSTINE_3.chk
 %mem=4000mb
 %nproc=8
 Will use up to    8 processors via shared memory.
 ----------------------------------------------------------------------
 # opt=maxcycles=150 freq b3lyp/6-31++g(d,p) empiricaldispersion=GD3 in
 t=ultrafine scf=xqc pop=(mk,dipole)
 ----------------------------------------------------------------------
 1/6=150,18=20,19=15,26=4,38=1/1,3;
 2/9=110,12=2,17=6,18=5,40=1/2;
 3/5=1,6=6,7=1111,11=2,25=1,30=1,71=1,74=-5,75=-5,124=31/1,2,3;
 4//1;
 5/5=2,8=3,13=1,38=5/2,8;
 6/7=2,8=2,9=2,10=2,15=24,20=1,28=1/1,2;
 7//1,2,3,16;
 1/6=150,18=20,19=15,26=4/3(2);
 2/9=110/2;
 99//99;
 2/9=110/2;
 3/5=1,6=6,7=1111,11=2,25=1,30=1,71=1,74=-5,75=-5,124=31/1,2,3;
 4/5=5,16=3,69=1/1;
 5/5=2,8=3,13=1,38=5/2,8;
 7//1,2,3,16;
 1/6=150,18=20,19=15,26=4/3(-5);
 2/9=110/2;
 6/7=2,8=2,9=2,10=2,15=24,19=2,20=1,28=1/1,2;
 99/9=1/99;
 ---------------------------
 Original File: AMIFOSTINE_3
 ---------------------------
 Symbolic Z-matrix:
 Charge =  1 Multiplicity = 1
 S                     1.69908   1.01618  -1.06897 
 P                     1.69639  -0.6657    0.11212 
 O                     1.65606  -0.07075   1.64755 
 O                     3.22773  -1.2241   -0.00564 
 O                     0.64059  -1.68538  -0.16067 
 N                    -1.2326    0.86011   0.68734 
 N                    -1.72243  -1.80516  -0.37908 
 C                    -2.72448   0.82951   0.8213 
 C                    -3.365     0.08463  -0.3622 
 C                    -0.76805   1.97314  -0.2041 
 C                     0.7278    2.20983  -0.0626 
 C                    -3.19067  -1.43552  -0.31019 
 H                    -2.98373   0.32411   1.7793 
 H                    -3.1763    1.8474    0.89077 
 H                    -2.9791    0.48905  -1.32224 
 H                    -4.45706   0.30997  -0.37924 
 H                    -1.30178   2.93398   0.00575 
 H                    -1.03391   1.70771  -1.2543 
 H                     1.0659    2.21727   0.99611 
 H                     1.00967   3.20672  -0.47383 
 H                    -3.74112  -1.91671  -1.15448 
 H                    -3.62942  -1.8522    0.62875 
 H                    -1.25474  -1.38491  -1.20397 
 H                    -1.56071  -2.82045  -0.40923 
 H                     2.46384  -0.2253    2.22134 
 H                     3.36998  -2.1776   -0.28009 
 H                    -0.81579   0.97906   1.62624 
 H                    -1.19431  -1.4238    0.44971 
 

 GradGradGradGradGradGradGradGradGradGradGradGradGradGradGradGradGradGrad
 Berny optimization.
 Initialization pass.
                           ----------------------------
                           !    Initial Parameters    !
                           ! (Angstroms and Degrees)  !
 --------------------------                            --------------------------
 ! Name  Definition              Value          Derivative Info.                !
 --------------------------------------------------------------------------------
 ! R1    R(1,2)                  2.0552         estimate D2E/DX2                !
 ! R2    R(1,11)                 1.8387         estimate D2E/DX2                !
 ! R3    R(2,3)                  1.6472         estimate D2E/DX2                !
 ! R4    R(2,4)                  1.6342         estimate D2E/DX2                !
 ! R5    R(2,5)                  1.4929         estimate D2E/DX2                !
 ! R6    R(3,25)                 1.0028         estimate D2E/DX2                !
 ! R7    R(4,26)                 1.0024         estimate D2E/DX2                !
 ! R8    R(6,8)                  1.4982         estimate D2E/DX2                !
 ! R9    R(6,10)                 1.4998         estimate D2E/DX2                !
 ! R10   R(6,27)                 1.0341         estimate D2E/DX2                !
 ! R11   R(7,12)                 1.5156         estimate D2E/DX2                !
 ! R12   R(7,23)                 1.0372         estimate D2E/DX2                !
 ! R13   R(7,24)                 1.0285         estimate D2E/DX2                !
 ! R14   R(7,28)                 1.0541         estimate D2E/DX2                !
 ! R15   R(8,9)                  1.5381         estimate D2E/DX2                !
 ! R16   R(8,13)                 1.1137         estimate D2E/DX2                !
 ! R17   R(8,14)                 1.1158         estimate D2E/DX2                !
 ! R18   R(9,12)                 1.531          estimate D2E/DX2                !
 ! R19   R(9,15)                 1.1109         estimate D2E/DX2                !
 ! R20   R(9,16)                 1.1152         estimate D2E/DX2                !
 ! R21   R(10,11)                1.5211         estimate D2E/DX2                !
 ! R22   R(10,17)                1.119          estimate D2E/DX2                !
 ! R23   R(10,18)                1.1154         estimate D2E/DX2                !
 ! R24   R(11,19)                1.1114         estimate D2E/DX2                !
 ! R25   R(11,20)                1.1146         estimate D2E/DX2                !
 ! R26   R(12,21)                1.1169         estimate D2E/DX2                !
 ! R27   R(12,22)                1.117          estimate D2E/DX2                !
 ! A1    A(2,1,11)             102.4758         estimate D2E/DX2                !
 ! A2    A(1,2,3)              103.8956         estimate D2E/DX2                !
 ! A3    A(1,2,4)              103.7092         estimate D2E/DX2                !
 ! A4    A(1,2,5)              117.0558         estimate D2E/DX2                !
 ! A5    A(3,2,4)              102.3292         estimate D2E/DX2                !
 ! A6    A(3,2,5)              113.5602         estimate D2E/DX2                !
 ! A7    A(4,2,5)              114.5905         estimate D2E/DX2                !
 ! A8    A(2,3,25)             117.2571         estimate D2E/DX2                !
 ! A9    A(2,4,26)             118.5382         estimate D2E/DX2                !
 ! A10   A(8,6,10)             112.1321         estimate D2E/DX2                !
 ! A11   A(8,6,27)             108.8159         estimate D2E/DX2                !
 ! A12   A(10,6,27)            109.2348         estimate D2E/DX2                !
 ! A13   A(12,7,23)            111.971          estimate D2E/DX2                !
 ! A14   A(12,7,24)            113.2286         estimate D2E/DX2                !
 ! A15   A(12,7,28)            111.1837         estimate D2E/DX2                !
 ! A16   A(23,7,24)            107.8033         estimate D2E/DX2                !
 ! A17   A(23,7,28)            104.6432         estimate D2E/DX2                !
 ! A18   A(24,7,28)            107.5413         estimate D2E/DX2                !
 ! A19   A(6,8,9)              110.8404         estimate D2E/DX2                !
 ! A20   A(6,8,13)             108.5398         estimate D2E/DX2                !
 ! A21   A(6,8,14)             112.9639         estimate D2E/DX2                !
 ! A22   A(9,8,13)             110.1916         estimate D2E/DX2                !
 ! A23   A(9,8,14)             108.7273         estimate D2E/DX2                !
 ! A24   A(13,8,14)            105.4358         estimate D2E/DX2                !
 ! A25   A(8,9,12)             114.0353         estimate D2E/DX2                !
 ! A26   A(8,9,15)             110.1205         estimate D2E/DX2                !
 ! A27   A(8,9,16)             108.7656         estimate D2E/DX2                !
 ! A28   A(12,9,15)            110.5643         estimate D2E/DX2                !
 ! A29   A(12,9,16)            108.219          estimate D2E/DX2                !
 ! A30   A(15,9,16)            104.6786         estimate D2E/DX2                !
 ! A31   A(6,10,11)            111.3953         estimate D2E/DX2                !
 ! A32   A(6,10,17)            112.2119         estimate D2E/DX2                !
 ! A33   A(6,10,18)            108.0113         estimate D2E/DX2                !
 ! A34   A(11,10,17)           108.5432         estimate D2E/DX2                !
 ! A35   A(11,10,18)           111.0411         estimate D2E/DX2                !
 ! A36   A(17,10,18)           105.4998         estimate D2E/DX2                !
 ! A37   A(1,11,10)            111.5643         estimate D2E/DX2                !
 ! A38   A(1,11,19)            111.4088         estimate D2E/DX2                !
 ! A39   A(1,11,20)            104.1875         estimate D2E/DX2                !
 ! A40   A(10,11,19)           112.8816         estimate D2E/DX2                !
 ! A41   A(10,11,20)           110.7041         estimate D2E/DX2                !
 ! A42   A(19,11,20)           105.5768         estimate D2E/DX2                !
 ! A43   A(7,12,9)             110.5438         estimate D2E/DX2                !
 ! A44   A(7,12,21)            109.7557         estimate D2E/DX2                !
 ! A45   A(7,12,22)            109.1311         estimate D2E/DX2                !
 ! A46   A(9,12,21)            110.2424         estimate D2E/DX2                !
 ! A47   A(9,12,22)            110.7454         estimate D2E/DX2                !
 ! A48   A(21,12,22)           106.328          estimate D2E/DX2                !
 ! D1    D(11,1,2,3)           -31.3452         estimate D2E/DX2                !
 ! D2    D(11,1,2,4)          -138.0097         estimate D2E/DX2                !
 ! D3    D(11,1,2,5)            94.721          estimate D2E/DX2                !
 ! D4    D(2,1,11,10)          -80.1997         estimate D2E/DX2                !
 ! D5    D(2,1,11,19)           46.9594         estimate D2E/DX2                !
 ! D6    D(2,1,11,20)          160.3268         estimate D2E/DX2                !
 ! D7    D(1,2,3,25)          -113.4865         estimate D2E/DX2                !
 ! D8    D(4,2,3,25)            -5.7899         estimate D2E/DX2                !
 ! D9    D(5,2,3,25)           118.2659         estimate D2E/DX2                !
 ! D10   D(1,2,4,26)          -126.5043         estimate D2E/DX2                !
 ! D11   D(3,2,4,26)           125.6562         estimate D2E/DX2                !
 ! D12   D(5,2,4,26)             2.2905         estimate D2E/DX2                !
 ! D13   D(10,6,8,9)            83.1678         estimate D2E/DX2                !
 ! D14   D(10,6,8,13)         -155.6873         estimate D2E/DX2                !
 ! D15   D(10,6,8,14)          -39.1362         estimate D2E/DX2                !
 ! D16   D(27,6,8,9)          -155.8812         estimate D2E/DX2                !
 ! D17   D(27,6,8,13)          -34.7362         estimate D2E/DX2                !
 ! D18   D(27,6,8,14)           81.8148         estimate D2E/DX2                !
 ! D19   D(8,6,10,11)          165.9576         estimate D2E/DX2                !
 ! D20   D(8,6,10,17)           44.025          estimate D2E/DX2                !
 ! D21   D(8,6,10,18)          -71.8427         estimate D2E/DX2                !
 ! D22   D(27,6,10,11)          45.2486         estimate D2E/DX2                !
 ! D23   D(27,6,10,17)         -76.684          estimate D2E/DX2                !
 ! D24   D(27,6,10,18)         167.4483         estimate D2E/DX2                !
 ! D25   D(23,7,12,9)          -54.094          estimate D2E/DX2                !
 ! D26   D(23,7,12,21)          67.7219         estimate D2E/DX2                !
 ! D27   D(23,7,12,22)        -176.1253         estimate D2E/DX2                !
 ! D28   D(24,7,12,9)         -176.2299         estimate D2E/DX2                !
 ! D29   D(24,7,12,21)         -54.414          estimate D2E/DX2                !
 ! D30   D(24,7,12,22)          61.7387         estimate D2E/DX2                !
 ! D31   D(28,7,12,9)           62.5665         estimate D2E/DX2                !
 ! D32   D(28,7,12,21)        -175.6176         estimate D2E/DX2                !
 ! D33   D(28,7,12,22)         -59.4649         estimate D2E/DX2                !
 ! D34   D(6,8,9,12)            74.0204         estimate D2E/DX2                !
 ! D35   D(6,8,9,15)           -50.9383         estimate D2E/DX2                !
 ! D36   D(6,8,9,16)          -165.111          estimate D2E/DX2                !
 ! D37   D(13,8,9,12)          -46.145          estimate D2E/DX2                !
 ! D38   D(13,8,9,15)         -171.1037         estimate D2E/DX2                !
 ! D39   D(13,8,9,16)           74.7237         estimate D2E/DX2                !
 ! D40   D(14,8,9,12)         -161.2396         estimate D2E/DX2                !
 ! D41   D(14,8,9,15)           73.8017         estimate D2E/DX2                !
 ! D42   D(14,8,9,16)          -40.371          estimate D2E/DX2                !
 ! D43   D(8,9,12,7)           -62.6234         estimate D2E/DX2                !
 ! D44   D(8,9,12,21)          175.8478         estimate D2E/DX2                !
 ! D45   D(8,9,12,22)           58.4544         estimate D2E/DX2                !
 ! D46   D(15,9,12,7)           62.099          estimate D2E/DX2                !
 ! D47   D(15,9,12,21)         -59.4298         estimate D2E/DX2                !
 ! D48   D(15,9,12,22)        -176.8232         estimate D2E/DX2                !
 ! D49   D(16,9,12,7)          176.204          estimate D2E/DX2                !
 ! D50   D(16,9,12,21)          54.6752         estimate D2E/DX2                !
 ! D51   D(16,9,12,22)         -62.7182         estimate D2E/DX2                !
 ! D52   D(6,10,11,1)           81.5719         estimate D2E/DX2                !
 ! D53   D(6,10,11,19)         -44.7847         estimate D2E/DX2                !
 ! D54   D(6,10,11,20)        -162.8904         estimate D2E/DX2                !
 ! D55   D(17,10,11,1)        -154.3953         estimate D2E/DX2                !
 ! D56   D(17,10,11,19)         79.2481         estimate D2E/DX2                !
 ! D57   D(17,10,11,20)        -38.8575         estimate D2E/DX2                !
 ! D58   D(18,10,11,1)         -38.8615         estimate D2E/DX2                !
 ! D59   D(18,10,11,19)       -165.2181         estimate D2E/DX2                !
 ! D60   D(18,10,11,20)         76.6762         estimate D2E/DX2                !
 --------------------------------------------------------------------------------
 Trust Radius=3.00D-01 FncErr=1.00D-07 GrdErr=1.00D-06 EigMax=2.50D+02 EigMin=1.00D-04
 Number of steps in this run=    150 maximum allowed number of steps=    168.
 GradGradGradGradGradGradGradGradGradGradGradGradGradGradGradGradGradGrad

                          Input orientation:                          
 ---------------------------------------------------------------------
 Center     Atomic      Atomic             Coordinates (Angstroms)
 Number     Number       Type             X           Y           Z
 ---------------------------------------------------------------------
      1         16           0        1.699075    1.016181   -1.068966
      2         15           0        1.696388   -0.665698    0.112124
      3          8           0        1.656063   -0.070754    1.647554
      4          8           0        3.227734   -1.224104   -0.005636
      5          8           0        0.640588   -1.685375   -0.160672
      6          7           0       -1.232600    0.860106    0.687339
      7          7           0       -1.722426   -1.805164   -0.379077
      8          6           0       -2.724484    0.829513    0.821297
      9          6           0       -3.364997    0.084632   -0.362198
     10          6           0       -0.768045    1.973143   -0.204104
     11          6           0        0.727803    2.209826   -0.062599
     12          6           0       -3.190669   -1.435520   -0.310192
     13          1           0       -2.983726    0.324109    1.779297
     14          1           0       -3.176303    1.847403    0.890767
     15          1           0       -2.979101    0.489046   -1.322237
     16          1           0       -4.457058    0.309967   -0.379242
     17          1           0       -1.301780    2.933977    0.005750
     18          1           0       -1.033908    1.707705   -1.254303
     19          1           0        1.065904    2.217271    0.996114
     20          1           0        1.009671    3.206719   -0.473830
     21          1           0       -3.741116   -1.916709   -1.154484
     22          1           0       -3.629416   -1.852201    0.628748
     23          1           0       -1.254744   -1.384907   -1.203971
     24          1           0       -1.560707   -2.820446   -0.409232
     25          1           0        2.463838   -0.225301    2.221339
     26          1           0        3.369977   -2.177603   -0.280087
     27          1           0       -0.815789    0.979056    1.626237
     28          1           0       -1.194314   -1.423804    0.449706
 ---------------------------------------------------------------------
                    Distance matrix (angstroms):
                    1          2          3          4          5
     1  S    0.000000
     2  P    2.055164   0.000000
     3  O    2.926219   1.647158   0.000000
     4  O    2.913133   1.634229   2.556052   0.000000
     5  O    3.040361   1.492941   2.628283   2.632514   0.000000
     6  N    3.421065   3.352301   3.183220   4.971793   3.272221
     7  N    4.488051   3.637025   4.304602   4.998117   2.376107
     8  C    4.814126   4.720455   4.547788   6.350595   4.314236
     9  C    5.197319   5.138637   5.410572   6.730827   4.383862
    10  C    2.783962   3.624488   3.671846   5.121331   3.920572
    11  C    1.838731   3.039297   2.997888   4.247914   3.897411
    12  C    5.522334   4.965310   5.402422   6.429102   3.842306
    13  H    5.524508   5.065832   4.658424   6.645689   4.575714
    14  H    5.319849   5.537606   5.253933   7.158867   5.306100
    15  H    4.714589   5.025040   5.533334   6.572147   4.379439
    16  H    6.234776   6.249661   6.451597   7.845316   5.478609
    17  H    3.719958   4.685935   4.524684   6.148680   5.013871
    18  H    2.825199   3.867128   4.338160   5.321303   3.938649
    19  H    2.471453   3.080659   2.451065   4.185699   4.092639
    20  H    2.372324   3.976246   3.957262   4.977068   4.915981
    21  H    6.181006   5.721519   6.355195   7.096790   4.498945
    22  H    6.285115   5.480773   5.669904   6.915017   4.345567
    23  H    3.809002   3.310370   4.281471   4.642680   2.184270
    24  H    5.077513   3.939977   4.705187   5.063632   2.489150
    25  H    3.598923   2.287295   1.002803   2.557452   3.336170
    26  H    3.689783   2.289233   3.330483   1.002356   2.775989
    27  H    3.686467   3.362854   2.685630   4.885387   3.523247
    28  H    4.078185   3.007465   3.374942   4.449913   1.951370
                    6          7          8          9         10
     6  N    0.000000
     7  N    2.912188   0.000000
     8  C    1.498198   3.063746   0.000000
     9  C    2.500001   2.503928   1.538104   0.000000
    10  C    1.499778   3.900905   2.487366   3.214907   0.000000
    11  C    2.495462   4.714226   3.821626   4.621387   1.521053
    12  C    3.177893   1.515625   2.574484   1.530999   4.183222
    13  H    2.132160   3.283787   1.113734   2.188314   3.400358
    14  H    2.189548   4.131284   1.115825   2.170919   2.648445
    15  H    2.688187   2.780680   2.185288   1.110919   2.888171
    16  H    3.440549   3.457165   2.170952   1.115197   4.050388
    17  H    2.184099   4.773310   2.667953   3.537092   1.118979
    18  H    2.127881   3.685149   2.817336   2.977279   1.115374
    19  H    2.687073   5.083888   4.040232   5.101573   2.205332
    20  H    3.447127   5.708967   4.612199   5.375650   2.180536
    21  H    4.170811   2.165365   3.532561   2.185074   4.987316
    22  H    3.620051   2.157437   2.836823   2.191623   4.849159
    23  H    2.935580   1.037204   3.341482   2.705789   3.537387
    24  H    3.854424   1.028523   4.023777   3.420110   4.863012
    25  H    4.146676   5.175223   5.476444   6.383262   4.600108
    26  H    5.598866   5.106964   6.884639   7.105232   5.861543
    27  H    1.034123   3.548965   2.076875   3.354449   2.083419
    28  H    2.296558   1.054144   2.748988   2.765218   3.485459
                   11         12         13         14         15
    11  C    0.000000
    12  C    5.357637   0.000000
    13  H    4.552357   2.739541   0.000000
    14  H    4.035133   3.495725   1.773977   0.000000
    15  H    4.276553   2.184708   3.105920   2.604114   0.000000
    16  H    5.531050   2.157599   2.613465   2.370014   1.762290
    17  H    2.155985   4.770768   3.575727   2.340456   3.248791
    18  H    2.185385   3.927191   3.862494   3.034913   2.296415
    19  H    1.111414   5.759143   4.538385   4.259603   4.972281
    20  H    1.114610   6.262589   5.416017   4.607846   4.900596
    21  H    6.179947   1.116854   3.768551   4.320949   2.529123
    22  H    5.996948   1.117018   2.544996   3.736447   3.116198
    23  H    4.260907   2.132887   3.848377   4.304433   2.549332
    24  H    5.537244   2.141169   4.086914   5.107736   3.714587
    25  H    3.762982   6.312427   5.493014   6.154487   6.533973
    26  H    5.126199   6.602550   7.132262   7.773375   6.964760
    27  H    2.598007   3.901281   2.269875   2.620490   3.689651
    28  H    4.142494   2.136122   2.832844   3.850144   3.159785
                   16         17         18         19         20
    16  H    0.000000
    17  H    4.121823   0.000000
    18  H    3.799653   1.778548   0.000000
    19  H    6.002710   2.664661   3.119815   0.000000
    20  H    6.187507   2.376382   2.651867   1.772824   0.000000
    21  H    2.464074   5.552086   4.524966   6.694946   7.020170
    22  H    2.525075   5.358499   4.791187   6.224274   6.951941
    23  H    3.715857   4.485354   3.100895   4.816790   5.171432
    24  H    4.264884   5.775174   4.636358   5.852579   6.552689
    25  H    7.412714   5.391637   5.296303   3.069455   4.599706
    26  H    8.213423   6.930748   5.953060   5.123706   5.882134
    27  H    4.210519   2.585320   2.979264   2.339017   3.564417
    28  H    3.786636   4.381655   3.568715   4.320252   5.210778
                   21         22         23         24         25
    21  H    0.000000
    22  H    1.787891   0.000000
    23  H    2.543090   3.035834   0.000000
    24  H    2.475141   2.508876   1.669130   0.000000
    25  H    7.263504   6.504682   5.187031   5.463666   0.000000
    26  H    7.169399   7.065647   4.782256   4.974090   3.299955
    27  H    4.967434   4.114304   3.713634   4.374272   3.544090
    28  H    3.050013   2.478972   1.655238   1.680068   4.237590
                   26         27         28
    26  H    0.000000
    27  H    5.578459   0.000000
    28  H    4.683328   2.702081   0.000000
 Stoichiometry    C5H16N2O3PS(1+)
 Framework group  C1[X(C5H16N2O3PS)]
 Deg. of freedom    78
 Full point group                 C1      NOp   1
 Largest Abelian subgroup         C1      NOp   1
 Largest concise Abelian subgroup C1      NOp   1
                         Standard orientation:                         
 ---------------------------------------------------------------------
 Center     Atomic      Atomic             Coordinates (Angstroms)
 Number     Number       Type             X           Y           Z
 ---------------------------------------------------------------------
      1         16           0        1.699075    1.016181   -1.068966
      2         15           0        1.696388   -0.665698    0.112124
      3          8           0        1.656063   -0.070754    1.647554
      4          8           0        3.227734   -1.224104   -0.005636
      5          8           0        0.640588   -1.685375   -0.160672
      6          7           0       -1.232600    0.860106    0.687339
      7          7           0       -1.722426   -1.805164   -0.379077
      8          6           0       -2.724484    0.829513    0.821297
      9          6           0       -3.364997    0.084632   -0.362198
     10          6           0       -0.768045    1.973143   -0.204104
     11          6           0        0.727803    2.209826   -0.062599
     12          6           0       -3.190669   -1.435520   -0.310192
     13          1           0       -2.983726    0.324109    1.779297
     14          1           0       -3.176303    1.847403    0.890767
     15          1           0       -2.979101    0.489046   -1.322237
     16          1           0       -4.457058    0.309967   -0.379242
     17          1           0       -1.301780    2.933977    0.005750
     18          1           0       -1.033908    1.707705   -1.254303
     19          1           0        1.065904    2.217271    0.996114
     20          1           0        1.009671    3.206719   -0.473830
     21          1           0       -3.741116   -1.916709   -1.154484
     22          1           0       -3.629416   -1.852201    0.628748
     23          1           0       -1.254744   -1.384907   -1.203971
     24          1           0       -1.560707   -2.820446   -0.409232
     25          1           0        2.463838   -0.225301    2.221339
     26          1           0        3.369977   -2.177603   -0.280087
     27          1           0       -0.815789    0.979056    1.626237
     28          1           0       -1.194314   -1.423804    0.449706
 ---------------------------------------------------------------------
 Rotational constants (GHZ):           1.0377512           0.4838385           0.3916666
 Standard basis: 6-31++G(d,p) (6D, 7F)
 There are   332 symmetry adapted cartesian basis functions of A   symmetry.
 There are   332 symmetry adapted basis functions of A   symmetry.
   332 basis functions,   560 primitive gaussians,   332 cartesian basis functions
    57 alpha electrons       57 beta electrons
       nuclear repulsion energy      1081.4506388587 Hartrees.
 NAtoms=   28 NActive=   28 NUniq=   28 SFac= 1.00D+00 NAtFMM=   60 NAOKFM=F Big=F
 Integral buffers will be    131072 words long.
 Raffenetti 2 integral format.
 Two-electron integral symmetry is turned on.
 Nuclear repulsion after empirical dispersion term =     1081.4195389781 Hartrees.
 One-electron integrals computed using PRISM.
 NBasis=   332 RedAO= T EigKep=  3.30D-05  NBF=   332
 NBsUse=   332 1.00D-06 EigRej= -1.00D+00 NBFU=   332
 ExpMin= 3.48D-02 ExpMax= 2.19D+04 ExpMxC= 3.30D+03 IAcc=3 IRadAn=         5 AccDes= 0.00D+00
 Harris functional with IExCor=  402 and IRadAn=       5 diagonalized for initial guess.
 HarFok:  IExCor=  402 AccDes= 0.00D+00 IRadAn=         5 IDoV= 1 UseB2=F ITyADJ=14
 ICtDFT=  3500011 ScaDFX=  1.000000  1.000000  1.000000  1.000000
 FoFCou: FMM=F IPFlag=           0 FMFlag=      100000 FMFlg1=           0
         NFxFlg=           0 DoJE=T BraDBF=F KetDBF=T FulRan=T
         wScrn=  0.000000 ICntrl=       500 IOpCl=  0 I1Cent=   200000004 NGrid=           0
         NMat0=    1 NMatS0=      1 NMatT0=    0 NMatD0=    1 NMtDS0=    0 NMtDT0=    0
 Petite list used in FoFCou.
 Requested convergence on RMS density matrix=1.00D-08 within  32 cycles.
 Requested convergence on MAX density matrix=1.00D-06.
 Requested convergence on             energy=1.00D-06.
 No special actions if energy rises.
 SCF Done:  E(RB3LYP) =  -1274.81525619     A.U. after   13 cycles
            NFock= 13  Conv=0.91D-08     -V/T= 2.0065
 QCSCF skips out because SCF is already converged.

 **********************************************************************

            Population analysis using the SCF density.

 **********************************************************************

 Orbital symmetries:
       Occupied  (A) (A) (A) (A) (A) (A) (A) (A) (A) (A) (A) (A)
                 (A) (A) (A) (A) (A) (A) (A) (A) (A) (A) (A) (A)
                 (A) (A) (A) (A) (A) (A) (A) (A) (A) (A) (A) (A)
                 (A) (A) (A) (A) (A) (A) (A) (A) (A) (A) (A) (A)
                 (A) (A) (A) (A) (A) (A) (A) (A) (A)
       Virtual   (A) (A) (A) (A) (A) (A) (A) (A) (A) (A) (A) (A)
                 (A) (A) (A) (A) (A) (A) (A) (A) (A) (A) (A) (A)
                 (A) (A) (A) (A) (A) (A) (A) (A) (A) (A) (A) (A)
                 (A) (A) (A) (A) (A) (A) (A) (A) (A) (A) (A) (A)
                 (A) (A) (A) (A) (A) (A) (A) (A) (A) (A) (A) (A)
                 (A) (A) (A) (A) (A) (A) (A) (A) (A) (A) (A) (A)
                 (A) (A) (A) (A) (A) (A) (A) (A) (A) (A) (A) (A)
                 (A) (A) (A) (A) (A) (A) (A) (A) (A) (A) (A) (A)
                 (A) (A) (A) (A) (A) (A) (A) (A) (A) (A) (A) (A)
                 (A) (A) (A) (A) (A) (A) (A) (A) (A) (A) (A) (A)
                 (A) (A) (A) (A) (A) (A) (A) (A) (A) (A) (A) (A)
                 (A) (A) (A) (A) (A) (A) (A) (A) (A) (A) (A) (A)
                 (A) (A) (A) (A) (A) (A) (A) (A) (A) (A) (A) (A)
                 (A) (A) (A) (A) (A) (A) (A) (A) (A) (A) (A) (A)
                 (A) (A) (A) (A) (A) (A) (A) (A) (A) (A) (A) (A)
                 (A) (A) (A) (A) (A) (A) (A) (A) (A) (A) (A) (A)
                 (A) (A) (A) (A) (A) (A) (A) (A) (A) (A) (A) (A)
                 (A) (A) (A) (A) (A) (A) (A) (A) (A) (A) (A) (A)
                 (A) (A) (A) (A) (A) (A) (A) (A) (A) (A) (A) (A)
                 (A) (A) (A) (A) (A) (A) (A) (A) (A) (A) (A) (A)
                 (A) (A) (A) (A) (A) (A) (A) (A) (A) (A) (A) (A)
                 (A) (A) (A) (A) (A) (A) (A) (A) (A) (A) (A) (A)
                 (A) (A) (A) (A) (A) (A) (A) (A) (A) (A) (A)
 The electronic state is 1-A.
 Alpha  occ. eigenvalues --  -89.01721 -77.38038 -19.32518 -19.32377 -19.26601
 Alpha  occ. eigenvalues --  -14.59315 -14.47593 -10.39898 -10.36097 -10.35899
 Alpha  occ. eigenvalues --  -10.35710 -10.34450  -8.08038  -6.82621  -6.04527
 Alpha  occ. eigenvalues --   -6.04146  -6.03504  -4.99092  -4.98927  -4.98785
 Alpha  occ. eigenvalues --   -1.20483  -1.15420  -1.13807  -1.11154  -1.04095
 Alpha  occ. eigenvalues --   -0.94233  -0.92154  -0.85231  -0.82020  -0.76754
 Alpha  occ. eigenvalues --   -0.74393  -0.72673  -0.71263  -0.70803  -0.69577
 Alpha  occ. eigenvalues --   -0.65117  -0.62761  -0.60614  -0.59909  -0.59432
 Alpha  occ. eigenvalues --   -0.58403  -0.57001  -0.55255  -0.54367  -0.53063
 Alpha  occ. eigenvalues --   -0.52589  -0.51958  -0.50923  -0.50104  -0.49207
 Alpha  occ. eigenvalues --   -0.47971  -0.47439  -0.46274  -0.45252  -0.43678
 Alpha  occ. eigenvalues --   -0.38370  -0.37953
 Alpha virt. eigenvalues --   -0.14987  -0.13905  -0.13193  -0.11619  -0.10983
 Alpha virt. eigenvalues --   -0.09963  -0.09539  -0.09186  -0.09037  -0.08084
 Alpha virt. eigenvalues --   -0.07793  -0.06936  -0.06510  -0.06018  -0.05386
 Alpha virt. eigenvalues --   -0.05179  -0.04302  -0.03946  -0.03630  -0.02541
 Alpha virt. eigenvalues --   -0.02258  -0.01847  -0.01762  -0.01427  -0.01171
 Alpha virt. eigenvalues --   -0.00542  -0.00082   0.00251   0.00505   0.00587
 Alpha virt. eigenvalues --    0.01414   0.01632   0.01881   0.02675   0.02799
 Alpha virt. eigenvalues --    0.02866   0.03239   0.03409   0.03930   0.04601
 Alpha virt. eigenvalues --    0.04877   0.05227   0.05588   0.05963   0.05970
 Alpha virt. eigenvalues --    0.06455   0.06687   0.06740   0.07381   0.07665
 Alpha virt. eigenvalues --    0.07861   0.08585   0.08915   0.09485   0.09747
 Alpha virt. eigenvalues --    0.10468   0.10695   0.11162   0.11575   0.12175
 Alpha virt. eigenvalues --    0.12762   0.13341   0.13822   0.14458   0.14756
 Alpha virt. eigenvalues --    0.14959   0.15997   0.16218   0.17584   0.17737
 Alpha virt. eigenvalues --    0.17828   0.18616   0.18881   0.19508   0.20338
 Alpha virt. eigenvalues --    0.20953   0.21898   0.22647   0.23160   0.24313
 Alpha virt. eigenvalues --    0.25108   0.25231   0.25741   0.26961   0.28138
 Alpha virt. eigenvalues --    0.28170   0.28812   0.29956   0.30360   0.32267
 Alpha virt. eigenvalues --    0.32475   0.37803   0.40040   0.41783   0.43907
 Alpha virt. eigenvalues --    0.44869   0.45268   0.50785   0.53086   0.53887
 Alpha virt. eigenvalues --    0.54648   0.55311   0.56833   0.57751   0.58627
 Alpha virt. eigenvalues --    0.60090   0.60411   0.61642   0.62781   0.65162
 Alpha virt. eigenvalues --    0.66125   0.67023   0.68264   0.69757   0.71451
 Alpha virt. eigenvalues --    0.71810   0.73978   0.75437   0.77088   0.79541
 Alpha virt. eigenvalues --    0.80549   0.81652   0.83108   0.83937   0.84804
 Alpha virt. eigenvalues --    0.86654   0.87270   0.88227   0.89288   0.90054
 Alpha virt. eigenvalues --    0.91623   0.92137   0.92951   0.93632   0.93836
 Alpha virt. eigenvalues --    0.96676   0.98162   0.99181   1.00443   1.00929
 Alpha virt. eigenvalues --    1.01428   1.03260   1.04870   1.06236   1.08455
 Alpha virt. eigenvalues --    1.08574   1.09955   1.11775   1.12661   1.13948
 Alpha virt. eigenvalues --    1.14517   1.14757   1.17617   1.18290   1.21494
 Alpha virt. eigenvalues --    1.22338   1.24436   1.24916   1.29814   1.32928
 Alpha virt. eigenvalues --    1.33276   1.36146   1.39000   1.40336   1.44008
 Alpha virt. eigenvalues --    1.44971   1.46256   1.47878   1.49397   1.51154
 Alpha virt. eigenvalues --    1.54707   1.57271   1.59719   1.60411   1.62811
 Alpha virt. eigenvalues --    1.63531   1.67149   1.67731   1.68827   1.69781
 Alpha virt. eigenvalues --    1.71843   1.72499   1.73878   1.76707   1.77125
 Alpha virt. eigenvalues --    1.78605   1.79582   1.82671   1.83469   1.84825
 Alpha virt. eigenvalues --    1.86537   1.89466   1.91069   1.93455   1.94388
 Alpha virt. eigenvalues --    1.95764   1.97244   1.98047   2.01553   2.02914
 Alpha virt. eigenvalues --    2.04281   2.05249   2.07011   2.10097   2.14161
 Alpha virt. eigenvalues --    2.14725   2.15818   2.17241   2.18292   2.18887
 Alpha virt. eigenvalues --    2.20011   2.21931   2.23387   2.25537   2.30183
 Alpha virt. eigenvalues --    2.32958   2.36491   2.38694   2.38941   2.40576
 Alpha virt. eigenvalues --    2.42152   2.43375   2.45370   2.45719   2.47075
 Alpha virt. eigenvalues --    2.47764   2.50116   2.51421   2.52421   2.55390
 Alpha virt. eigenvalues --    2.55593   2.58850   2.60808   2.62116   2.63201
 Alpha virt. eigenvalues --    2.64485   2.66850   2.68991   2.69346   2.71170
 Alpha virt. eigenvalues --    2.72687   2.76039   2.76199   2.78356   2.80131
 Alpha virt. eigenvalues --    2.82060   2.84014   3.11676   3.13470   3.14413
 Alpha virt. eigenvalues --    3.16014   3.17494   3.18824   3.24142   3.26063
 Alpha virt. eigenvalues --    3.27255   3.29866   3.31847   3.33956   3.36507
 Alpha virt. eigenvalues --    3.38703   3.40854   3.42578   3.44495   3.84704
 Alpha virt. eigenvalues --    4.05559   4.09352   4.13360   4.21214   4.23834
 Alpha virt. eigenvalues --    4.29546   4.34246   4.50385   4.56415   4.58319
          Condensed to atoms (all electrons):
               1          2          3          4          5          6
     1  S   15.936980   0.345553  -0.031539  -0.083109  -0.188864   0.013399
     2  P    0.345553  13.905259  -0.169964  -0.033006  -0.134621  -0.049204
     3  O   -0.031539  -0.169964   8.828373   0.012881  -0.097731   0.016219
     4  O   -0.083109  -0.033006   0.012881   8.698442  -0.129883  -0.003030
     5  O   -0.188864  -0.134621  -0.097731  -0.129883   9.368620   0.045795
     6  N    0.013399  -0.049204   0.016219  -0.003030   0.045795   7.529478
     7  N   -0.007006  -0.032897  -0.008399   0.002460  -0.128188  -0.159764
     8  C    0.046808  -0.053069   0.000106  -0.002325   0.008053  -0.007783
     9  C   -0.010342   0.013520  -0.003144   0.000165  -0.003055  -0.133269
    10  C   -0.255393   0.040079  -0.004963  -0.009532   0.003484   0.135350
    11  C    0.100375   0.110438  -0.066397   0.007829  -0.036958  -0.067077
    12  C   -0.024064   0.054531   0.000032   0.000363   0.017697   0.100052
    13  H   -0.000965   0.005290   0.001878  -0.000023  -0.000792  -0.046461
    14  H    0.000627   0.001822  -0.000452   0.000036  -0.002963  -0.077891
    15  H   -0.008128   0.009811  -0.000318  -0.000068  -0.005725  -0.027995
    16  H    0.000194  -0.001986   0.000050  -0.000065   0.001309   0.012760
    17  H    0.004221   0.017253  -0.000229   0.000934  -0.004578  -0.056481
    18  H    0.040394  -0.029849   0.001299  -0.000675   0.008464  -0.036420
    19  H    0.047629  -0.085724   0.023938   0.003697   0.012221   0.022425
    20  H   -0.074032   0.035818  -0.006859  -0.002648  -0.003214  -0.011930
    21  H    0.001494  -0.002090   0.000462  -0.000069   0.002829   0.004996
    22  H   -0.001296   0.005863  -0.001358  -0.000014  -0.002045   0.002945
    23  H    0.005963  -0.017069   0.002439   0.000965  -0.004329   0.002276
    24  H   -0.001656  -0.000742  -0.001750  -0.000751  -0.005551   0.008501
    25  H   -0.008149   0.035903   0.200765  -0.016852   0.002961   0.003502
    26  H    0.000241  -0.006534   0.005495   0.241815  -0.017002   0.000412
    27  H    0.024926  -0.052810   0.009644   0.000418   0.003371   0.275730
    28  H   -0.003608  -0.043555   0.003832   0.002547   0.006761   0.042103
               7          8          9         10         11         12
     1  S   -0.007006   0.046808  -0.010342  -0.255393   0.100375  -0.024064
     2  P   -0.032897  -0.053069   0.013520   0.040079   0.110438   0.054531
     3  O   -0.008399   0.000106  -0.003144  -0.004963  -0.066397   0.000032
     4  O    0.002460  -0.002325   0.000165  -0.009532   0.007829   0.000363
     5  O   -0.128188   0.008053  -0.003055   0.003484  -0.036958   0.017697
     6  N   -0.159764  -0.007783  -0.133269   0.135350  -0.067077   0.100052
     7  N    7.067193   0.074152  -0.111269   0.020807  -0.000203   0.031585
     8  C    0.074152   5.536419   0.344107  -0.203965  -0.027191  -0.289298
     9  C   -0.111269   0.344107   5.409606  -0.053283  -0.027846   0.238016
    10  C    0.020807  -0.203965  -0.053283   5.839698  -0.019509   0.058725
    11  C   -0.000203  -0.027191  -0.027846  -0.019509   5.884763   0.020319
    12  C    0.031585  -0.289298   0.238016   0.058725   0.020319   5.638292
    13  H    0.006702   0.405886  -0.039314   0.007985  -0.004165  -0.002686
    14  H    0.004975   0.390334  -0.032950   0.002435   0.009156   0.005309
    15  H    0.002142  -0.023016   0.361079   0.010315  -0.008422  -0.021924
    16  H    0.007833  -0.032060   0.368224   0.005875  -0.000823   0.000359
    17  H    0.000573  -0.013457  -0.006990   0.351997   0.036359   0.005054
    18  H   -0.005344   0.004571  -0.009103   0.380088  -0.042241  -0.003577
    19  H   -0.000365   0.016619  -0.003830  -0.121600   0.357341  -0.003511
    20  H    0.000174  -0.010651   0.003897   0.016290   0.356169   0.001035
    21  H   -0.029042   0.017440  -0.027722  -0.001994  -0.001188   0.349381
    22  H   -0.038479  -0.011202  -0.072986   0.003190   0.000890   0.425541
    23  H    0.306734   0.027024  -0.013596  -0.002196  -0.000714  -0.066077
    24  H    0.273905  -0.014006   0.019686  -0.000545   0.001293  -0.009734
    25  H   -0.000352  -0.000267   0.000007   0.003998  -0.000050  -0.000384
    26  H    0.000738  -0.000455   0.000160   0.000084  -0.000238   0.000918
    27  H    0.008293  -0.005508   0.012091  -0.066066  -0.029722  -0.037992
    28  H    0.261628  -0.000033  -0.007201   0.009114  -0.008833  -0.069718
              13         14         15         16         17         18
     1  S   -0.000965   0.000627  -0.008128   0.000194   0.004221   0.040394
     2  P    0.005290   0.001822   0.009811  -0.001986   0.017253  -0.029849
     3  O    0.001878  -0.000452  -0.000318   0.000050  -0.000229   0.001299
     4  O   -0.000023   0.000036  -0.000068  -0.000065   0.000934  -0.000675
     5  O   -0.000792  -0.002963  -0.005725   0.001309  -0.004578   0.008464
     6  N   -0.046461  -0.077891  -0.027995   0.012760  -0.056481  -0.036420
     7  N    0.006702   0.004975   0.002142   0.007833   0.000573  -0.005344
     8  C    0.405886   0.390334  -0.023016  -0.032060  -0.013457   0.004571
     9  C   -0.039314  -0.032950   0.361079   0.368224  -0.006990  -0.009103
    10  C    0.007985   0.002435   0.010315   0.005875   0.351997   0.380088
    11  C   -0.004165   0.009156  -0.008422  -0.000823   0.036359  -0.042241
    12  C   -0.002686   0.005309  -0.021924   0.000359   0.005054  -0.003577
    13  H    0.571230  -0.040056   0.008753  -0.003944   0.002768  -0.000829
    14  H   -0.040056   0.557174  -0.003155  -0.007781   0.003923  -0.002739
    15  H    0.008753  -0.003155   0.558880  -0.034488  -0.001338  -0.002393
    16  H   -0.003944  -0.007781  -0.034488   0.507790  -0.000742   0.003256
    17  H    0.002768   0.003923  -0.001338  -0.000742   0.594175  -0.056823
    18  H   -0.000829  -0.002739  -0.002393   0.003256  -0.056823   0.596363
    19  H   -0.000418  -0.000779  -0.002323   0.000494  -0.006547   0.011844
    20  H   -0.000546   0.001393   0.001278  -0.000091  -0.009062  -0.003178
    21  H    0.000802  -0.003191  -0.011371   0.002578   0.000405  -0.000125
    22  H    0.005726   0.003084   0.010995  -0.003942  -0.000076   0.000199
    23  H   -0.000733  -0.001203   0.003918   0.002487  -0.000336   0.002921
    24  H   -0.000517   0.000444  -0.001493   0.000236  -0.000124   0.000276
    25  H   -0.000265  -0.000050  -0.000009  -0.000007   0.000239  -0.000335
    26  H    0.000071  -0.000010   0.000096  -0.000027   0.000169  -0.000244
    27  H   -0.011853   0.004643   0.002153  -0.000930  -0.018963   0.016034
    28  H   -0.008000  -0.002137  -0.005446  -0.000235   0.000609  -0.001317
              19         20         21         22         23         24
     1  S    0.047629  -0.074032   0.001494  -0.001296   0.005963  -0.001656
     2  P   -0.085724   0.035818  -0.002090   0.005863  -0.017069  -0.000742
     3  O    0.023938  -0.006859   0.000462  -0.001358   0.002439  -0.001750
     4  O    0.003697  -0.002648  -0.000069  -0.000014   0.000965  -0.000751
     5  O    0.012221  -0.003214   0.002829  -0.002045  -0.004329  -0.005551
     6  N    0.022425  -0.011930   0.004996   0.002945   0.002276   0.008501
     7  N   -0.000365   0.000174  -0.029042  -0.038479   0.306734   0.273905
     8  C    0.016619  -0.010651   0.017440  -0.011202   0.027024  -0.014006
     9  C   -0.003830   0.003897  -0.027722  -0.072986  -0.013596   0.019686
    10  C   -0.121600   0.016290  -0.001994   0.003190  -0.002196  -0.000545
    11  C    0.357341   0.356169  -0.001188   0.000890  -0.000714   0.001293
    12  C   -0.003511   0.001035   0.349381   0.425541  -0.066077  -0.009734
    13  H   -0.000418  -0.000546   0.000802   0.005726  -0.000733  -0.000517
    14  H   -0.000779   0.001393  -0.003191   0.003084  -0.001203   0.000444
    15  H   -0.002323   0.001278  -0.011371   0.010995   0.003918  -0.001493
    16  H    0.000494  -0.000091   0.002578  -0.003942   0.002487   0.000236
    17  H   -0.006547  -0.009062   0.000405  -0.000076  -0.000336  -0.000124
    18  H    0.011844  -0.003178  -0.000125   0.000199   0.002921   0.000276
    19  H    0.530922  -0.042559   0.000166  -0.000328   0.001518   0.000089
    20  H   -0.042559   0.517567  -0.000107   0.000145  -0.000747  -0.000051
    21  H    0.000166  -0.000107   0.536677  -0.046137  -0.004566  -0.009049
    22  H   -0.000328   0.000145  -0.046137   0.542122   0.010190  -0.002838
    23  H    0.001518  -0.000747  -0.004566   0.010190   0.337886  -0.020664
    24  H    0.000089  -0.000051  -0.009049  -0.002838  -0.020664   0.357954
    25  H   -0.000734  -0.000908   0.000027  -0.000021  -0.000073   0.000052
    26  H   -0.000801   0.000152  -0.000060   0.000050  -0.000455  -0.000525
    27  H    0.014813   0.001729   0.000104  -0.001206   0.001988  -0.001648
    28  H    0.001457  -0.001187   0.018501  -0.017076  -0.018712  -0.016298
              25         26         27         28
     1  S   -0.008149   0.000241   0.024926  -0.003608
     2  P    0.035903  -0.006534  -0.052810  -0.043555
     3  O    0.200765   0.005495   0.009644   0.003832
     4  O   -0.016852   0.241815   0.000418   0.002547
     5  O    0.002961  -0.017002   0.003371   0.006761
     6  N    0.003502   0.000412   0.275730   0.042103
     7  N   -0.000352   0.000738   0.008293   0.261628
     8  C   -0.000267  -0.000455  -0.005508  -0.000033
     9  C    0.000007   0.000160   0.012091  -0.007201
    10  C    0.003998   0.000084  -0.066066   0.009114
    11  C   -0.000050  -0.000238  -0.029722  -0.008833
    12  C   -0.000384   0.000918  -0.037992  -0.069718
    13  H   -0.000265   0.000071  -0.011853  -0.008000
    14  H   -0.000050  -0.000010   0.004643  -0.002137
    15  H   -0.000009   0.000096   0.002153  -0.005446
    16  H   -0.000007  -0.000027  -0.000930  -0.000235
    17  H    0.000239   0.000169  -0.018963   0.000609
    18  H   -0.000335  -0.000244   0.016034  -0.001317
    19  H   -0.000734  -0.000801   0.014813   0.001457
    20  H   -0.000908   0.000152   0.001729  -0.001187
    21  H    0.000027  -0.000060   0.000104   0.018501
    22  H   -0.000021   0.000050  -0.001206  -0.017076
    23  H   -0.000073  -0.000455   0.001988  -0.018712
    24  H    0.000052  -0.000525  -0.001648  -0.016298
    25  H    0.318122   0.000963  -0.001850   0.001900
    26  H    0.000963   0.350032  -0.000826  -0.000555
    27  H   -0.001850  -0.000826   0.485674   0.003678
    28  H    0.001900  -0.000555   0.003678   0.352267
 Mulliken charges:
               1
     1  S    0.129346
     2  P    1.131979
     3  O   -0.714310
     4  O   -0.690502
     5  O   -0.716067
     6  N   -0.538638
     7  N   -0.548588
     8  C   -0.177235
     9  C   -0.214659
    10  C   -0.150468
    11  C   -0.543359
    12  C   -0.418245
    13  H    0.144476
    14  H    0.190001
    15  H    0.188191
    16  H    0.173676
    17  H    0.157067
    18  H    0.129484
    19  H    0.224347
    20  H    0.232123
    21  H    0.200849
    22  H    0.188064
    23  H    0.445160
    24  H    0.425503
    25  H    0.461867
    26  H    0.426337
    27  H    0.364086
    28  H    0.499514
 Sum of Mulliken charges =   1.00000
 Mulliken charges with hydrogens summed into heavy atoms:
               1
     1  S    0.129346
     2  P    1.131979
     3  O   -0.252442
     4  O   -0.264164
     5  O   -0.716067
     6  N   -0.174552
     7  N    0.821589
     8  C    0.157242
     9  C    0.147208
    10  C    0.136083
    11  C   -0.086889
    12  C   -0.029331
 Electronic spatial extent (au):  <R**2>=           2977.5689
 Charge=              1.0000 electrons
 Dipole moment (field-independent basis, Debye):
    X=             -5.0013    Y=             -2.8645    Z=              0.7332  Tot=              5.8100
 Quadrupole moment (field-independent basis, Debye-Ang):
   XX=            -52.3402   YY=            -62.2661   ZZ=            -78.3663
   XY=              3.0412   XZ=              6.0336   YZ=              3.2320
 Traceless Quadrupole moment (field-independent basis, Debye-Ang):
   XX=             11.9840   YY=              2.0581   ZZ=            -14.0421
   XY=              3.0412   XZ=              6.0336   YZ=              3.2320
 Octapole moment (field-independent basis, Debye-Ang**2):
  XXX=            -38.1701  YYY=            -32.4255  ZZZ=             19.7292  XYY=              0.7915
  XXY=            -56.0022  XXZ=             11.8611  XZZ=             10.6484  YZZ=             -8.8558
  YYZ=             -7.0306  XYZ=             -2.8562
 Hexadecapole moment (field-independent basis, Debye-Ang**3):
 XXXX=          -2091.3824 YYYY=           -848.4190 ZZZZ=           -354.6239 XXXY=            -51.5094
 XXXZ=             58.8139 YYYX=             11.5955 YYYZ=             14.3477 ZZZX=             52.2668
 ZZZY=              8.7018 XXYY=           -428.2167 XXZZ=           -401.3686 YYZZ=           -225.2283
 XXYZ=             25.5212 YYXZ=              1.3389 ZZXY=             -0.6947
 N-N= 1.081419538978D+03 E-N=-5.152472079133D+03  KE= 1.266588153023D+03
 Merz-Kollman atomic radii used.

 **********************************************************************

            Electrostatic Properties Using The SCF Density

 **********************************************************************

       Atomic Center    1 is at   1.699075  1.016181 -1.068966
       Atomic Center    2 is at   1.696388 -0.665698  0.112124
       Atomic Center    3 is at   1.656063 -0.070754  1.647554
       Atomic Center    4 is at   3.227734 -1.224104 -0.005636
       Atomic Center    5 is at   0.640588 -1.685375 -0.160672
       Atomic Center    6 is at  -1.232600  0.860106  0.687339
       Atomic Center    7 is at  -1.722426 -1.805164 -0.379077
       Atomic Center    8 is at  -2.724484  0.829513  0.821297
       Atomic Center    9 is at  -3.364997  0.084632 -0.362198
       Atomic Center   10 is at  -0.768045  1.973143 -0.204104
       Atomic Center   11 is at   0.727803  2.209826 -0.062599
       Atomic Center   12 is at  -3.190669 -1.435520 -0.310192
       Atomic Center   13 is at  -2.983726  0.324109  1.779297
       Atomic Center   14 is at  -3.176303  1.847403  0.890767
       Atomic Center   15 is at  -2.979101  0.489046 -1.322237
       Atomic Center   16 is at  -4.457058  0.309967 -0.379242
       Atomic Center   17 is at  -1.301780  2.933977  0.005750
       Atomic Center   18 is at  -1.033908  1.707705 -1.254303
       Atomic Center   19 is at   1.065904  2.217271  0.996114
       Atomic Center   20 is at   1.009671  3.206719 -0.473830
       Atomic Center   21 is at  -3.741116 -1.916709 -1.154484
       Atomic Center   22 is at  -3.629416 -1.852201  0.628748
       Atomic Center   23 is at  -1.254744 -1.384907 -1.203971
       Atomic Center   24 is at  -1.560707 -2.820446 -0.409232
       Atomic Center   25 is at   2.463838 -0.225301  2.221339
       Atomic Center   26 is at   3.369977 -2.177603 -0.280087
       Atomic Center   27 is at  -0.815789  0.979056  1.626237
       Atomic Center   28 is at  -1.194314 -1.423804  0.449706
    1121 points will be used for fitting atomic charges
 Fitting point charges to electrostatic potential
 The dipole moment will be constrained to the correct value
 Charges from ESP fit, RMS=   0.00174 RRMS=   0.01555:
 ESP charges:
               1
     1  S   -0.117704
     2  P    0.992222
     3  O   -0.665260
     4  O   -0.652854
     5  O   -0.701714
     6  N   -0.420136
     7  N   -0.259683
     8  C   -0.101619
     9  C   -0.030850
    10  C    0.155518
    11  C   -0.256715
    12  C   -0.074833
    13  H    0.092073
    14  H    0.083526
    15  H    0.060573
    16  H    0.081261
    17  H    0.028151
    18  H    0.048606
    19  H    0.137429
    20  H    0.193960
    21  H    0.098161
    22  H    0.104837
    23  H    0.291722
    24  H    0.317827
    25  H    0.493415
    26  H    0.500323
    27  H    0.289795
    28  H    0.311969
 Sum of ESP charges =   1.00000
 ESP charges with hydrogens summed into heavy atoms:
               1
     1  S   -0.117704
     2  P    0.992222
     3  O   -0.171845
     4  O   -0.152531
     5  O   -0.701714
     6  N   -0.130341
     7  N    0.661835
     8  C    0.073980
     9  C    0.110985
    10  C    0.232274
    11  C    0.074674
    12  C    0.128166
 Charge=   1.00000 Dipole=    -5.0013    -2.8645     0.7332 Tot=     5.8100
 -----------------------------------------------------------------

              Electrostatic Properties (Atomic Units)

 -----------------------------------------------------------------
    Center     Electric         -------- Electric Field --------
               Potential          X             Y             Z
 -----------------------------------------------------------------
    1 Atom    -59.051144
    2 Atom    -53.826233
    3 Atom    -22.135752
    4 Atom    -22.134555
    5 Atom    -22.200187
    6 Atom    -18.207505
    7 Atom    -18.088417
    8 Atom    -14.564786
    9 Atom    -14.580107
   10 Atom    -14.567153
   11 Atom    -14.564566
   12 Atom    -14.525360
   13 Atom     -0.976113
   14 Atom     -0.987593
   15 Atom     -0.968866
   16 Atom     -0.968840
   17 Atom     -0.988471
   18 Atom     -0.983754
   19 Atom     -0.966352
   20 Atom     -0.964227
   21 Atom     -0.944148
   22 Atom     -0.942021
   23 Atom     -0.823424
   24 Atom     -0.822605
   25 Atom     -0.812478
   26 Atom     -0.813447
   27 Atom     -0.922578
   28 Atom     -0.826829
 -----------------------------------------------------------------
 Calling FoFJK, ICntrl=      2127 FMM=F ISym2X=0 I1Cent= 0 IOpClX= 0 NMat=1 NMatS=1 NMatT=0.
 ***** Axes restored to original set *****
 -------------------------------------------------------------------
 Center     Atomic                   Forces (Hartrees/Bohr)
 Number     Number              X              Y              Z
 -------------------------------------------------------------------
      1       16           0.009191330    0.007964976   -0.009422157
      2       15           0.022560263   -0.007833736    0.025256118
      3        8           0.016447074   -0.010739852    0.007158959
      4        8          -0.003484597   -0.020082775   -0.006986369
      5        8           0.015153599   -0.003379565    0.001069486
      6        7          -0.005947308    0.012714619    0.007078128
      7        7          -0.016602233    0.003873097    0.008462189
      8        6           0.002595666    0.002547505    0.005195379
      9        6          -0.009648046    0.006892464   -0.003070317
     10        6          -0.015462976   -0.000288437    0.002963978
     11        6           0.002237574    0.013399243    0.001445068
     12        6          -0.015447291   -0.006791393   -0.003526743
     13        1           0.003432146    0.002876839   -0.009573731
     14        1           0.006872954   -0.006975800   -0.001312520
     15        1          -0.001863286   -0.004324568    0.007094101
     16        1           0.011009326   -0.005229092    0.000954400
     17        1           0.003729667   -0.009153689    0.002667421
     18        1           0.005469531    0.003760214    0.011481195
     19        1          -0.003367571   -0.003280030   -0.011486546
     20        1          -0.003816376   -0.012581019    0.001250794
     21        1           0.011702508    0.004338928    0.008935985
     22        1           0.010478616    0.004215334   -0.010206282
     23        1          -0.003028355   -0.005246662    0.012069538
     24        1           0.000117121    0.005171107   -0.000579927
     25        1          -0.021388359    0.002627009   -0.021367950
     26        1          -0.010268061    0.027362091    0.007291037
     27        1          -0.004800079    0.001067580   -0.011956438
     28        1          -0.005872839   -0.002904387   -0.020884795
 -------------------------------------------------------------------
 Cartesian Forces:  Max     0.027362091 RMS     0.009947240

 GradGradGradGradGradGradGradGradGradGradGradGradGradGradGradGradGradGrad
 Berny optimization.
 FormGI is forming the generalized inverse of G from B-inverse, IUseBI=4.
 Internal  Forces:  Max     0.091774029 RMS     0.017642793
 Search for a local minimum.
 Step number   1 out of a maximum of  150
 All quantities printed in internal units (Hartrees-Bohrs-Radians)
 Mixed Optimization -- RFO/linear search
 Second derivative matrix not updated -- first step.
 ITU=  0
     Eigenvalues ---    0.00230   0.00230   0.00262   0.00356   0.00372
     Eigenvalues ---    0.00393   0.00487   0.01362   0.02501   0.02789
     Eigenvalues ---    0.02960   0.03276   0.03651   0.04083   0.04134
     Eigenvalues ---    0.04554   0.04731   0.04813   0.05037   0.05362
     Eigenvalues ---    0.05401   0.05421   0.05661   0.07974   0.08610
     Eigenvalues ---    0.09010   0.09150   0.10789   0.11475   0.11940
     Eigenvalues ---    0.12000   0.12419   0.12646   0.12719   0.13315
     Eigenvalues ---    0.13859   0.14584   0.16000   0.16000   0.16000
     Eigenvalues ---    0.16000   0.16000   0.21300   0.21323   0.21843
     Eigenvalues ---    0.21844   0.21855   0.21866   0.21915   0.23289
     Eigenvalues ---    0.23442   0.25000   0.28688   0.28968   0.29331
     Eigenvalues ---    0.30265   0.30792   0.31668   0.31868   0.31885
     Eigenvalues ---    0.31991   0.32038   0.32056   0.32117   0.32208
     Eigenvalues ---    0.32401   0.32451   0.32503   0.32567   0.39308
     Eigenvalues ---    0.41703   0.42159   0.43006   0.43083   0.45130
     Eigenvalues ---    0.47199   0.47277   0.79063
 RFO step:  Lambda=-1.36088035D-01 EMin= 2.30000000D-03
 Linear search not attempted -- first point.
 Maximum step size (   0.300) exceeded in Quadratic search.
    -- Step size scaled by   0.575
 Iteration  1 RMS(Cart)=  0.34537651 RMS(Int)=  0.01892631
 Iteration  2 RMS(Cart)=  0.22431070 RMS(Int)=  0.00482297
 Iteration  3 RMS(Cart)=  0.01119995 RMS(Int)=  0.00077653
 Iteration  4 RMS(Cart)=  0.00002607 RMS(Int)=  0.00077648
 Iteration  5 RMS(Cart)=  0.00000001 RMS(Int)=  0.00077648
 Variable       Old X    -DE/DX   Delta X   Delta X   Delta X     New X
                                 (Linear)    (Quad)   (Total)
    R1        3.88370   0.01698   0.00000   0.02293   0.02293   3.90663
    R2        3.47470   0.01591   0.00000   0.02480   0.02480   3.49950
    R3        3.11268  -0.01606   0.00000  -0.01629  -0.01629   3.09639
    R4        3.08825  -0.01540   0.00000  -0.01507  -0.01507   3.07317
    R5        2.82125  -0.00860   0.00000  -0.00534  -0.00534   2.81591
    R6        1.89502  -0.02986   0.00000  -0.02824  -0.02824   1.86678
    R7        1.89418  -0.02948   0.00000  -0.02785  -0.02785   1.86633
    R8        2.83118   0.00568   0.00000   0.00708   0.00708   2.83826
    R9        2.83417  -0.01054   0.00000  -0.01318  -0.01318   2.82099
   R10        1.95421  -0.01267   0.00000  -0.01306  -0.01306   1.94115
   R11        2.86412  -0.02477   0.00000  -0.03208  -0.03208   2.83203
   R12        1.96003  -0.01309   0.00000  -0.01361  -0.01361   1.94642
   R13        1.94363  -0.00507   0.00000  -0.00515  -0.00515   1.93848
   R14        1.99204  -0.02041   0.00000  -0.02218  -0.02218   1.96986
   R15        2.90660   0.00856   0.00000   0.01164   0.01164   2.91823
   R16        2.10465  -0.01034   0.00000  -0.01298  -0.01298   2.09167
   R17        2.10860  -0.00923   0.00000  -0.01164  -0.01164   2.09697
   R18        2.89317  -0.00496   0.00000  -0.00664  -0.00664   2.88653
   R19        2.09933  -0.00835   0.00000  -0.01042  -0.01042   2.08892
   R20        2.10742  -0.01185   0.00000  -0.01493  -0.01493   2.09249
   R21        2.87437   0.02132   0.00000   0.02795   0.02795   2.90232
   R22        2.11456  -0.00914   0.00000  -0.01161  -0.01161   2.10296
   R23        2.10775  -0.01301   0.00000  -0.01639  -0.01639   2.09136
   R24        2.10027  -0.01199   0.00000  -0.01497  -0.01497   2.08530
   R25        2.10631  -0.01268   0.00000  -0.01595  -0.01595   2.09036
   R26        2.11055  -0.01439   0.00000  -0.01819  -0.01819   2.09236
   R27        2.11086  -0.01427   0.00000  -0.01804  -0.01804   2.09282
    A1        1.78854   0.05121   0.00000   0.07627   0.07627   1.86482
    A2        1.81332   0.00565   0.00000   0.01292   0.01283   1.82615
    A3        1.81007  -0.00771   0.00000  -0.01442  -0.01443   1.79564
    A4        2.04301   0.00906   0.00000   0.01689   0.01668   2.05969
    A5        1.78598   0.00317   0.00000   0.00369   0.00373   1.78972
    A6        1.98200  -0.00088   0.00000   0.00086   0.00067   1.98267
    A7        1.99998  -0.00925   0.00000  -0.01995  -0.01992   1.98006
    A8        2.04652  -0.01017   0.00000  -0.01976  -0.01976   2.02677
    A9        2.06888  -0.01167   0.00000  -0.02267  -0.02267   2.04622
   A10        1.95707  -0.03592   0.00000  -0.06004  -0.06063   1.89644
   A11        1.89920  -0.00249   0.00000  -0.02094  -0.02130   1.87790
   A12        1.90651   0.01316   0.00000   0.01612   0.01457   1.92108
   A13        1.95426   0.00196   0.00000   0.00271   0.00272   1.95698
   A14        1.97621   0.00072   0.00000   0.00243   0.00241   1.97862
   A15        1.94052   0.00412   0.00000   0.00810   0.00808   1.94860
   A16        1.88152  -0.00166   0.00000  -0.00335  -0.00335   1.87818
   A17        1.82637  -0.00547   0.00000  -0.01263  -0.01262   1.81374
   A18        1.87695  -0.00036   0.00000   0.00131   0.00127   1.87822
   A19        1.93453   0.06088   0.00000   0.10109   0.10123   2.03576
   A20        1.89438  -0.01396   0.00000  -0.01457  -0.01564   1.87874
   A21        1.97159  -0.02548   0.00000  -0.04863  -0.04802   1.92357
   A22        1.92321  -0.01398   0.00000  -0.01563  -0.01657   1.90664
   A23        1.89765  -0.01999   0.00000  -0.03478  -0.03383   1.86382
   A24        1.84020   0.00935   0.00000   0.00728   0.00635   1.84655
   A25        1.99029   0.02431   0.00000   0.04017   0.04012   2.03041
   A26        1.92197  -0.00583   0.00000  -0.00385  -0.00422   1.91775
   A27        1.89832  -0.00759   0.00000  -0.01548  -0.01512   1.88320
   A28        1.92971  -0.00420   0.00000  -0.00104  -0.00141   1.92831
   A29        1.88878  -0.01329   0.00000  -0.02888  -0.02866   1.86012
   A30        1.82699   0.00465   0.00000   0.00517   0.00505   1.83204
   A31        1.94421   0.06441   0.00000   0.10670   0.10655   2.05077
   A32        1.95847  -0.02173   0.00000  -0.04171  -0.04013   1.91833
   A33        1.88515  -0.01891   0.00000  -0.02150  -0.02376   1.86140
   A34        1.89444  -0.03053   0.00000  -0.05998  -0.05871   1.83573
   A35        1.93803  -0.00669   0.00000   0.00260   0.00123   1.93926
   A36        1.84132   0.01023   0.00000   0.00861   0.00781   1.84912
   A37        1.94716   0.09177   0.00000   0.15231   0.15195   2.09911
   A38        1.94445  -0.03723   0.00000  -0.05133  -0.05505   1.88940
   A39        1.81842  -0.02860   0.00000  -0.05011  -0.04698   1.77143
   A40        1.97016  -0.00886   0.00000  -0.00073  -0.00288   1.96727
   A41        1.93215  -0.03574   0.00000  -0.07177  -0.06968   1.86247
   A42        1.84266   0.01129   0.00000   0.00689   0.00512   1.84778
   A43        1.92935   0.00682   0.00000   0.01060   0.01063   1.93998
   A44        1.91560  -0.00704   0.00000  -0.01572  -0.01575   1.89985
   A45        1.90470  -0.00301   0.00000  -0.00622  -0.00625   1.89844
   A46        1.92409   0.00168   0.00000   0.00592   0.00597   1.93006
   A47        1.93287  -0.00156   0.00000  -0.00099  -0.00097   1.93190
   A48        1.85577   0.00276   0.00000   0.00580   0.00572   1.86150
    D1       -0.54708   0.00614   0.00000   0.02583   0.02566  -0.52142
    D2       -2.40872   0.00342   0.00000   0.02236   0.02233  -2.38639
    D3        1.65319   0.01572   0.00000   0.04890   0.04910   1.70230
    D4       -1.39975  -0.04048   0.00000  -0.14626  -0.14586  -1.54561
    D5        0.81960  -0.00920   0.00000  -0.06738  -0.06914   0.75046
    D6        2.79823  -0.02797   0.00000  -0.10908  -0.10772   2.69051
    D7       -1.98071   0.00732   0.00000   0.01547   0.01548  -1.96523
    D8       -0.10105   0.00181   0.00000   0.00517   0.00517  -0.09588
    D9        2.06413  -0.00789   0.00000  -0.01631  -0.01633   2.04780
   D10       -2.20792   0.00199   0.00000   0.00530   0.00517  -2.20274
   D11        2.19311  -0.00273   0.00000  -0.00535  -0.00532   2.18779
   D12        0.03998   0.00138   0.00000   0.00227   0.00238   0.04235
   D13        1.45155  -0.00254   0.00000  -0.00952  -0.01054   1.44101
   D14       -2.71726   0.00897   0.00000   0.02457   0.02401  -2.69324
   D15       -0.68306  -0.00338   0.00000  -0.00431  -0.00422  -0.68727
   D16       -2.72064  -0.01074   0.00000  -0.04199  -0.04202  -2.76266
   D17       -0.60626   0.00078   0.00000  -0.00790  -0.00747  -0.61373
   D18        1.42794  -0.01157   0.00000  -0.03678  -0.03570   1.39224
   D19        2.89651  -0.03069   0.00000  -0.10782  -0.10813   2.78838
   D20        0.76838  -0.02228   0.00000  -0.07761  -0.07733   0.69105
   D21       -1.25389  -0.01101   0.00000  -0.05161  -0.05198  -1.30587
   D22        0.78974  -0.01326   0.00000  -0.05355  -0.05360   0.73614
   D23       -1.33839  -0.00485   0.00000  -0.02334  -0.02280  -1.36119
   D24        2.92252   0.00642   0.00000   0.00265   0.00255   2.92508
   D25       -0.94412  -0.00055   0.00000  -0.00216  -0.00215  -0.94626
   D26        1.18197   0.00136   0.00000   0.00177   0.00173   1.18370
   D27       -3.07397  -0.00101   0.00000  -0.00365  -0.00362  -3.07759
   D28       -3.07579  -0.00039   0.00000  -0.00162  -0.00160  -3.07739
   D29       -0.94970   0.00151   0.00000   0.00231   0.00228  -0.94742
   D30        1.07754  -0.00085   0.00000  -0.00311  -0.00307   1.07447
   D31        1.09199  -0.00348   0.00000  -0.01101  -0.01101   1.08098
   D32       -3.06511  -0.00157   0.00000  -0.00708  -0.00714  -3.07224
   D33       -1.03786  -0.00394   0.00000  -0.01251  -0.01249  -1.05035
   D34        1.29190   0.01426   0.00000   0.04833   0.04860   1.34049
   D35       -0.88904   0.00607   0.00000   0.02233   0.02250  -0.86654
   D36       -2.88173   0.00786   0.00000   0.02680   0.02698  -2.85475
   D37       -0.80538   0.00149   0.00000   0.01140   0.01144  -0.79395
   D38       -2.98632  -0.00670   0.00000  -0.01460  -0.01466  -3.00098
   D39        1.30417  -0.00491   0.00000  -0.01013  -0.01018   1.29399
   D40       -2.81416   0.00922   0.00000   0.03087   0.03075  -2.78341
   D41        1.28808   0.00104   0.00000   0.00486   0.00465   1.29273
   D42       -0.70461   0.00283   0.00000   0.00933   0.00913  -0.69548
   D43       -1.09298  -0.00607   0.00000  -0.02160  -0.02174  -1.11472
   D44        3.06912  -0.00286   0.00000  -0.01282  -0.01297   3.05615
   D45        1.02022  -0.00634   0.00000  -0.02302  -0.02316   0.99706
   D46        1.08383   0.00138   0.00000   0.00316   0.00320   1.08703
   D47       -1.03725   0.00459   0.00000   0.01195   0.01197  -1.02528
   D48       -3.08615   0.00110   0.00000   0.00175   0.00178  -3.08437
   D49        3.07534  -0.00272   0.00000  -0.00734  -0.00722   3.06812
   D50        0.95426   0.00049   0.00000   0.00144   0.00154   0.95580
   D51       -1.09464  -0.00299   0.00000  -0.00876  -0.00864  -1.10328
   D52        1.42370   0.01247   0.00000   0.04263   0.04525   1.46895
   D53       -0.78164  -0.00499   0.00000  -0.01166  -0.01151  -0.79315
   D54       -2.84297   0.01080   0.00000   0.02891   0.02875  -2.81422
   D55       -2.69471   0.00673   0.00000   0.01933   0.02061  -2.67409
   D56        1.38314  -0.01072   0.00000  -0.03496  -0.03614   1.34700
   D57       -0.67819   0.00507   0.00000   0.00560   0.00412  -0.67407
   D58       -0.67826  -0.00254   0.00000  -0.00401  -0.00268  -0.68094
   D59       -2.88360  -0.02000   0.00000  -0.05830  -0.05943  -2.94303
   D60        1.33825  -0.00421   0.00000  -0.01774  -0.01917   1.31908
         Item               Value     Threshold  Converged?
 Maximum Force            0.091774     0.000450     NO 
 RMS     Force            0.017643     0.000300     NO 
 Maximum Displacement     2.303046     0.001800     NO 
 RMS     Displacement     0.560097     0.001200     NO 
 Predicted change in Energy=-6.755355D-02
 GradGradGradGradGradGradGradGradGradGradGradGradGradGradGradGradGradGrad

                          Input orientation:                          
 ---------------------------------------------------------------------
 Center     Atomic      Atomic             Coordinates (Angstroms)
 Number     Number       Type             X           Y           Z
 ---------------------------------------------------------------------
      1         16           0        2.027543    1.033797   -0.962983
      2         15           0        2.530323   -0.554292    0.261313
      3          8           0        2.328368    0.016731    1.783797
      4          8           0        4.149127   -0.621758    0.121244
      5          8           0        1.859307   -1.862913    0.021115
      6          7           0       -1.283783    0.634892    0.690389
      7          7           0       -2.490643   -2.021737   -0.524707
      8          6           0       -2.773956    0.803434    0.772966
      9          6           0       -3.603359    0.208473   -0.385852
     10          6           0       -0.729942    1.706596   -0.188916
     11          6           0        0.764080    2.035008   -0.051603
     12          6           0       -3.798592   -1.306413   -0.371327
     13          1           0       -3.109637    0.356990    1.728559
     14          1           0       -3.035198    1.880168    0.834272
     15          1           0       -3.183615    0.535132   -1.354890
     16          1           0       -4.614649    0.657728   -0.346215
     17          1           0       -1.258329    2.666619    0.004906
     18          1           0       -0.982270    1.425257   -1.229091
     19          1           0        1.086076    2.123273    1.000170
     20          1           0        0.912060    3.036106   -0.498281
     21          1           0       -4.475735   -1.619516   -1.189493
     22          1           0       -4.273308   -1.630692    0.575235
     23          1           0       -1.975205   -1.712701   -1.361202
     24          1           0       -2.588565   -3.041375   -0.579576
     25          1           0        3.150107    0.119724    2.322317
     26          1           0        4.544476   -1.488031   -0.140796
     27          1           0       -0.907385    0.729684    1.641441
     28          1           0       -1.841440   -1.809115    0.262651
 ---------------------------------------------------------------------
                    Distance matrix (angstroms):
                    1          2          3          4          5
     1  S    0.000000
     2  P    2.067297   0.000000
     3  O    2.944439   1.638539   0.000000
     4  O    2.901299   1.626253   2.546942   0.000000
     5  O    3.063932   1.490116   2.619184   2.606486   0.000000
     6  N    3.722586   4.018168   3.824304   5.605320   4.070132
     7  N    5.471963   5.289738   5.719040   6.816432   4.386937
     8  C    5.110868   5.499144   5.260645   7.098239   5.398315
     9  C    5.720253   6.214716   6.318982   7.813288   5.856363
    10  C    2.942033   3.992950   4.012543   5.415049   4.414716
    11  C    1.851857   3.149922   3.144699   4.306602   4.049518
    12  C    6.306385   6.404771   6.628342   7.992348   5.698731
    13  H    5.838928   5.898508   5.448920   7.498738   5.703835
    14  H    5.438548   6.101631   5.756894   7.640849   6.215147
    15  H    5.249612   6.037222   6.364123   7.568783   5.751093
    16  H    6.681358   7.272463   7.290632   8.869013   6.957059
    17  H    3.794716   4.979347   4.801120   6.329893   5.498780
    18  H    3.046805   4.298631   4.692735   5.687258   4.522127
    19  H    2.434602   3.130673   2.568049   4.205947   4.176854
    20  H    2.338694   4.010825   4.041092   4.923655   5.016715
    21  H    7.027375   7.233560   7.603524   8.780763   6.454268
    22  H    7.011871   6.895403   6.910626   8.494791   6.161976
    23  H    4.870711   4.926890   5.603811   6.394939   4.078829
    24  H    6.169480   5.752885   6.254101   7.193205   4.640385
    25  H    3.590108   2.255253   0.987859   2.528351   3.300385
    26  H    3.656578   2.256184   3.298408   0.987620   2.716041
    27  H    3.935646   3.920610   3.316424   5.450295   4.123300
    28  H    4.955134   4.548285   4.799468   6.108740   3.709011
                    6          7          8          9         10
     6  N    0.000000
     7  N    3.160798   0.000000
     8  C    1.501945   3.121828   0.000000
     9  C    2.592404   2.496248   1.544263   0.000000
    10  C    1.492805   4.136821   2.432880   3.246487   0.000000
    11  C    2.589329   5.222474   3.835933   4.745786   1.535843
    12  C    3.349652   1.498648   2.609740   1.527484   4.304429
    13  H    2.118671   3.334471   1.106866   2.176363   3.340822
    14  H    2.153803   4.167520   1.109667   2.146176   2.528091
    15  H    2.793292   2.776147   2.183478   1.105407   2.958435
    16  H    3.488515   3.423857   2.159155   1.107298   4.026887
    17  H    2.144400   4.876451   2.521606   3.419699   1.112836
    18  H    2.097616   3.827939   2.757723   3.010270   1.106700
    19  H    2.815577   5.683245   4.085760   5.251506   2.210309
    20  H    3.464173   6.095971   4.493061   5.328898   2.135293
    21  H    4.336458   2.131739   3.552180   2.179087   5.108340
    22  H    3.752784   2.130887   2.865681   2.180607   4.927155
    23  H    3.193475   1.030002   3.394645   2.700575   3.823156
    24  H    4.102463   1.025798   4.079988   3.410110   5.113739
    25  H    4.752681   6.671541   6.161369   7.276769   4.886638
    26  H    6.258296   7.065772   7.723031   8.326187   6.166639
    27  H    1.027210   3.843074   2.060042   3.413188   2.082318
    28  H    2.543051   1.042404   2.820536   2.756008   3.714776
                   11         12         13         14         15
    11  C    0.000000
    12  C    5.664389   0.000000
    13  H    4.581529   2.766060   0.000000
    14  H    3.904262   3.491495   1.767869   0.000000
    15  H    4.419558   2.176437   3.089477   2.573632   0.000000
    16  H    5.560075   2.127070   2.580735   2.320038   1.755083
    17  H    2.119496   4.730695   3.425304   2.112727   3.177894
    18  H    2.192718   4.016149   3.796654   2.946001   2.377829
    19  H    1.103494   6.124029   4.610240   4.131769   5.128232
    20  H    1.106172   6.408107   5.320763   4.323509   4.874752
    21  H    6.488914   1.107227   3.779924   4.291685   2.517823
    22  H    6.261435   1.107471   2.575881   3.731776   3.098968
    23  H    4.823283   2.114158   3.888082   4.341935   2.552068
    24  H    6.106444   2.125472   4.141001   5.140042   3.707641
    25  H    3.872587   7.587754   6.292316   6.600866   7.335561
    26  H    5.168282   8.348228   8.092220   8.351465   8.080260
    27  H    2.713681   4.068907   2.235264   2.550043   3.767900
    28  H    4.654543   2.117802   2.906754   3.919517   3.148550
                   16         17         18         19         20
    16  H    0.000000
    17  H    3.927317   0.000000
    18  H    3.816118   1.771987   0.000000
    19  H    6.038116   2.604229   3.120078   0.000000
    20  H    6.018665   2.258385   2.591795   1.763208   0.000000
    21  H    2.432335   5.490833   4.634275   7.052434   7.154084
    22  H    2.490472   5.280365   4.839974   6.557119   7.058291
    23  H    3.689960   4.643125   3.293957   5.446303   5.624242
    24  H    4.224079   5.890021   4.790914   6.532394   7.014040
    25  H    8.228120   5.593870   5.602986   3.165834   4.633563
    26  H    9.409360   7.138269   6.341651   5.128727   5.812921
    27  H    4.207109   2.559908   2.954553   2.515393   3.634332
    28  H    3.761213   4.520912   3.663964   4.957616   5.624673
                   21         22         23         24         25
    21  H    0.000000
    22  H    1.776336   0.000000
    23  H    2.508150   3.006292   0.000000
    24  H    2.440307   2.482333   1.659073   0.000000
    25  H    8.573869   7.824535   6.572284   7.165604   0.000000
    26  H    9.081919   8.847958   6.636724   7.313390   3.255159
    27  H    5.125041   4.247070   4.015140   4.688301   4.159193
    28  H    3.013998   2.458358   1.632203   1.669134   5.733950
                   26         27         28
    26  H    0.000000
    27  H    6.149586   0.000000
    28  H    6.406698   3.036284   0.000000
 Stoichiometry    C5H16N2O3PS(1+)
 Framework group  C1[X(C5H16N2O3PS)]
 Deg. of freedom    78
 Full point group                 C1      NOp   1
 Largest Abelian subgroup         C1      NOp   1
 Largest concise Abelian subgroup C1      NOp   1
                         Standard orientation:                         
 ---------------------------------------------------------------------
 Center     Atomic      Atomic             Coordinates (Angstroms)
 Number     Number       Type             X           Y           Z
 ---------------------------------------------------------------------
      1         16           0        1.769944    0.958490   -1.101341
      2         15           0        2.282416   -0.638448    0.107328
[...]
 00012341,-0.00028674,0.00026447,-0.00040584,-0.00052395,-0.00999652,-0
 .01594527,0.03675536,-0.00036991,-0.00103574,0.00013021,0.00156474,0.0
 0529331,-0.00992160,-0.00002762,0.00001918,-0.00002703,-0.00005756,0.0
 0012342,0.00002176,-0.05057580,-0.00063774,-0.00462748,0.00027465,-0.0
 0006410,0.00025527,-0.00006708,-0.00001634,-0.00004400,0.00002102,0.00
 237412,0.00082352,0.00006103,-0.00017963,-0.00015233,0.00001910,0.0000
 0868,-0.00000315,-0.00002406,0.00003080,0.00005558,0.00003180,-0.00003
 601,-0.00001102,0.00001113,-0.00000498,-0.00000526,0.00245998,0.009693
 52,-0.01535335,0.06069194,0.00002471,0.00000031,0.00000496,-0.00016711
 ,0.00007828,0.00007749,0.00005812,-0.00001975,-0.00004664,0.00004979,-
 0.00003478,-0.00000453,0.00002279,-0.00012907,-0.00006163,-0.00017838,
 0.00025073,-0.00056593,0.00113156,0.00123157,-0.00328305,-0.00023915,0
 .00118624,0.00193577,-0.00057326,-0.01659148,0.02732864,0.00002362,-0.
 00009110,0.00037767,0.00000322,0.00003976,-0.00010781,-0.00603102,-0.1
 1220796,0.11415439,-0.00027774,-0.00033458,-0.00138394,0.00035257,0.00
 053920,-0.00015892,0.00221208,-0.00529748,-0.00141017,0.00019911,0.000
 72531,-0.00014984,0.00001593,0.00004520,-0.00003592,0.00001864,0.00002
 307,-0.00012801,-0.00003232,-0.00000276,0.00000815,0.00002914,-0.00000
 106,-0.00000202,0.00118597,0.00905780,-0.01444704,0.00138528,0.1206237
 3,0.00006451,-0.00000614,0.00002989,-0.00003724,0.00016942,-0.00012623
 ,0.00000790,-0.00003069,0.00003379,0.00003594,-0.00004265,0.00001111,0
 .00002544,-0.00010982,0.00011150,0.00017905,0.00012032,0.00002105,0.00
 289536,0.00303782,-0.00856220,-0.00016271,-0.00086221,0.00139075,-0.00
 141461,-0.00178018,0.00504969,-0.00004523,-0.00008871,0.00000209,-0.00
 000539,-0.00001049,-0.00001550,0.00619984,0.11169050,-0.25890786,0.000
 23231,0.00032971,0.00014183,-0.00001242,0.00000117,0.00014075,-0.00004
 167,-0.00183451,0.00094127,-0.00024897,0.00063485,0.00014008,0.0000101
 8,0.00001379,0.00002591,0.00001741,-0.00000786,-0.00000730,-0.00000869
 ,0.00000233,0.00000241,0.00000788,-0.00000387,-0.00000397,0.00055385,0
 .01045908,-0.01652704,-0.00994878,-0.12168638,0.27507700,0.00028756,0.
 00021177,0.00041704,-0.00013961,0.00089174,-0.00140278,-0.00009480,0.0
 0003557,0.00053094,0.00003127,-0.00029303,0.00012283,-0.00118373,-0.00
 035556,0.00104726,-0.00030812,-0.00192828,0.00003493,-0.05900579,0.000
 20579,0.02984944,0.00006164,0.00024102,0.00012801,0.00004175,-0.000904
 60,0.00035047,0.00033533,0.00010154,-0.00043427,0.00048687,-0.00050749
 ,0.00005313,-0.00054802,-0.00646693,0.03515992,-0.00011981,-0.00008678
 ,-0.00014310,0.00002724,-0.00002216,-0.00005239,-0.00000837,0.00092771
 ,-0.00043495,0.00006083,0.00007026,-0.00045246,-0.00016571,-0.00017769
 ,0.00013230,0.00006983,-0.00007833,-0.00000980,-0.00012320,0.00018884,
 0.00005761,-0.00007111,0.00004404,0.00004186,0.00112543,-0.00082727,-0
 .00025985,-0.00649779,0.00099741,0.00131003,0.05942616,0.00067812,-0.0
 0019950,0.00045284,0.00029842,0.00157389,-0.00085477,-0.00005658,-0.00
 023781,0.00030248,0.00025172,-0.00034611,0.00009748,0.00001061,-0.0004
 6802,-0.00029327,-0.00007290,-0.00342213,0.00015479,0.00132167,-0.0646
 2108,0.04822204,-0.00052687,-0.00009670,0.00010881,0.00022889,0.000843
 75,-0.00164778,0.00006503,-0.00034215,-0.00127309,-0.00006680,-0.00026
 216,0.00013737,-0.00177859,-0.00150132,0.00199031,0.00004799,0.0000078
 4,0.00010797,0.00004490,-0.00003614,-0.00002923,0.00026955,-0.00044817
 ,0.00050230,0.00000910,-0.00026064,0.00040316,-0.00007781,-0.00025567,
 0.00030979,0.00008886,-0.00038356,0.00018536,0.00005780,0.00002509,-0.
 00001091,-0.00003095,-0.00002519,-0.00001980,-0.00033119,0.00035927,0.
 00024602,-0.00106550,0.00045578,-0.00003385,0.00074963,0.05845905,0.00
 078793,0.00037634,0.00011142,-0.00094853,-0.00023133,-0.00033761,0.000
 10118,0.00008096,0.00011123,0.00032695,-0.00003050,-0.00002914,0.00036
 030,0.00003609,0.00031688,-0.00023938,-0.00027010,0.00081738,0.0287195
 6,0.05607190,-0.40941454,0.00009346,0.00011395,-0.00024717,-0.00015264
 ,-0.00088020,0.00004232,-0.00000917,-0.00045752,-0.00013435,-0.0001003
 4,-0.00005839,-0.00008584,0.00147767,0.00078516,-0.00370278,0.00001416
 ,-0.00000443,-0.00000638,-0.00001592,0.00006416,0.00007610,0.00022714,
 -0.00017389,-0.00006289,-0.00011886,0.00012023,0.00013737,-0.00000474,
 0.00002039,0.00006535,-0.00000683,-0.00006276,0.00014134,0.00001675,-0
 .00003033,-0.00001299,0.00002320,0.00001919,0.00001340,-0.00079627,0.0
 0007518,0.00157191,0.00051582,-0.00063991,0.00133904,-0.03293501,-0.05
 760268,0.42961437,-0.00039803,0.00150890,-0.00055167,-0.00503783,-0.01
 143936,-0.00042482,0.00039286,0.00240754,0.00148628,0.00280651,0.00174
 454,0.00009229,0.00306616,0.00772091,0.00111709,-0.00119680,-0.0025836
 1,-0.00274710,-0.14302112,0.14638016,-0.04212873,-0.00021728,0.0002679
 4,0.00035049,-0.00475520,-0.00127431,0.00150464,0.00056456,0.00108350,
 -0.00023443,0.00077232,-0.00037132,-0.00059784,-0.01078546,0.02222264,
 -0.00655886,-0.00005584,0.00003650,0.00004762,-0.00002782,-0.00015136,
 -0.00004849,0.00006249,-0.00024019,-0.00019548,0.00002860,0.00118272,0
 .00004441,-0.00020593,-0.00020290,0.00011071,-0.00001319,0.00012350,-0
 .00005724,-0.00014409,0.00004109,0.00008486,-0.00027817,0.00019530,0.0
 0019168,-0.00059138,0.00008071,-0.00032187,0.00172713,0.00014454,0.000
 36153,0.00389126,-0.00567662,0.00084438,0.14273815,0.00029887,-0.00005
 146,0.00009068,-0.00248273,-0.00016924,-0.00103362,0.00003429,-0.00026
 344,0.00005617,0.00058994,-0.00012770,-0.00002800,0.00351920,-0.003062
 74,0.00163581,-0.00077154,0.00033346,-0.00141337,0.14554056,-0.2860412
 4,0.07892722,-0.00021834,-0.00003441,-0.00010521,-0.00125367,0.0002856
 2,0.00060555,-0.00016245,0.00023598,0.00019313,-0.00005699,-0.00006077
 ,0.00004403,-0.00161053,0.00732614,-0.00508952,0.00002102,-0.00002303,
 -0.00001957,-0.00001466,0.00005854,0.00003944,0.00004847,0.00008341,-0
 .00004214,-0.00038594,0.00049982,0.00005943,0.00009241,0.00013584,-0.0
 0001592,0.00002891,0.00003240,0.00005755,-0.00001369,0.00002388,0.0000
 0453,0.00002815,-0.00001578,-0.00001601,-0.00110256,0.00013303,-0.0000
 3435,-0.00006577,0.00100782,0.00021663,-0.00083061,-0.00084527,-0.0018
 8078,-0.15549494,0.30269008,-0.00009082,0.00056976,-0.00022740,-0.0018
 1376,-0.00462095,0.00033191,0.00021908,0.00070292,0.00018085,0.0015685
 3,0.00086852,0.00015769,0.00200852,0.00311047,-0.00244561,-0.00098003,
 -0.00113242,-0.00230118,-0.03776315,0.07247747,-0.08323378,0.00004792,
 0.00028532,0.00069984,0.00392359,0.00102177,-0.00109353,0.00002439,0.0
 0057688,-0.00010245,0.00010118,-0.00004390,-0.00033071,0.00222646,-0.0
 1357359,0.00291374,0.00001803,-0.00000222,-0.00011357,-0.00011281,-0.0
 0005842,-0.00008787,-0.00008342,0.00000346,0.00014869,0.00033159,-0.00
 119743,-0.00007483,0.00000707,-0.00002426,0.00005714,0.00004049,0.0000
 3344,0.00001771,-0.00000988,-0.00007234,0.00001898,-0.00011039,0.00006
 644,0.00006819,-0.00022205,0.00038574,-0.00021037,0.00110027,-0.000312
 10,0.00008914,-0.01946909,0.03315650,-0.00654159,0.03900236,-0.0807659
 4,0.08443334,0.00003690,-0.00009124,0.00375235,0.00765139,-0.00032194,
 0.00600056,-0.26646131,0.05918989,-0.25293018,-0.00360344,0.00092258,0
 .00000525,-0.00013108,0.00093238,0.00103575,-0.00031872,-0.00000163,0.
 00008987,0.00007485,-0.00005531,-0.00002352,-0.00003732,0.00015600,-0.
 00014557,-0.00000707,0.00000377,0.00001916,-0.00009907,-0.00006530,-0.
 00001969,-0.00038440,0.00034274,0.00000331,-0.00007231,0.00002601,-0.0
 0000783,-0.00002176,-0.00000870,0.00001018,-0.00004974,-0.00002142,0.0
 0001265,-0.00000939,0.00000148,0.00000713,0.00000331,-0.00000375,-0.00
 001635,0.00006194,0.00002009,-0.00004083,-0.00003765,0.00002969,0.0000
 1938,0.00022271,0.00004327,-0.00015338,0.00010846,-0.00000623,0.000073
 33,0.00001085,-0.00000637,0.00000984,-0.00001546,-0.00001573,-0.000006
 98,-0.00003159,-0.00003261,-0.00002637,-0.00010979,-0.00002488,-0.0000
 6726,0.26339049,0.00035937,-0.00042476,0.00036073,-0.01360807,0.001423
 37,-0.01708474,0.07158618,-0.02071726,0.05345834,0.00107593,-0.0011241
 3,0.00243042,0.00130872,-0.00456806,-0.00140556,0.00017440,-0.00009444
 ,-0.00018997,0.00001940,-0.00004299,-0.00000195,-0.00001937,-0.0000250
 4,0.00009288,0.00001682,-0.00000880,-0.00001056,-0.00004030,0.00014457
 ,-0.00030062,-0.00014563,0.00014554,0.00091632,-0.00000376,0.00001848,
 -0.00002602,-0.00001655,0.00001499,0.00001402,0.00004194,-0.00001956,0
 .00001039,-0.00000015,-0.00000407,0.00000873,0.00000321,0.00000264,0.0
 0000647,0.00008647,-0.00004039,0.00002043,-0.00007006,-0.00004832,0.00
 002080,0.00037416,0.00009588,0.00029464,0.00007689,-0.00007223,0.00009
 944,-0.00000005,-0.00000642,0.00000171,-0.00001693,-0.00000088,0.00000
 430,0.00001718,0.00001703,0.00000787,0.00002820,0.00000393,-0.00004490
 ,-0.06095742,0.02521405,0.00087724,-0.00105737,-0.00219251,-0.01878569
 ,-0.00031591,-0.02843800,-0.22452641,0.03534695,-0.24112669,-0.0017720
 2,0.00378017,0.00363652,0.00192935,0.00153926,0.00216819,0.00092579,-0
 .00030403,0.00007154,0.00032798,0.00003528,0.00004933,-0.00030293,-0.0
 0018280,0.00023226,0.00012642,0.00000186,-0.00006087,-0.00000875,0.000
 19307,-0.00004133,0.00007399,-0.00069669,0.00039465,-0.00021294,-0.000
 05338,0.00012032,0.00003634,0.00005327,-0.00001100,0.00012411,-0.00004
 615,-0.00000244,-0.00003427,0.00000070,-0.00001787,0.00003249,0.000004
 92,0.00001782,0.00003140,-0.00007635,-0.00003152,0.00005012,-0.0000003
 8,0.00002755,-0.00021612,0.00049526,0.00012081,0.00014592,-0.00009989,
 0.00008595,0.00003334,0.00000147,-0.00000692,0.00000110,-0.00000726,-0
 .00000348,-0.00002157,-0.00001774,-0.00004774,-0.00034687,-0.00005153,
 -0.00013194,0.24262248,-0.03829651,0.26380515,-0.00091460,-0.00035140,
 -0.00024366,-0.01684465,0.03587965,0.00971339,-0.00347178,0.00083349,0
 .00071082,-0.04409924,0.07568020,0.01984027,0.00598300,-0.00331506,-0.
 00056694,0.00016212,-0.00023216,-0.00004572,0.00055918,-0.00031277,0.0
 0005343,-0.00013202,-0.00001793,0.00002683,0.00007690,0.00005641,-0.00
 002446,0.00003024,0.00010925,-0.00009142,-0.00038700,0.00001044,0.0001
 7983,-0.00029546,-0.00003560,0.00015654,0.00000018,0.00001860,0.000010
 82,0.00003004,-0.00003747,-0.00000151,-0.00002229,-0.00000722,-0.00000
 177,0.00001586,-0.00003438,-0.00001515,0.00002740,-0.00004339,0.000018
 04,0.00001802,0.00002105,0.00001564,-0.00003162,-0.00001569,0.00002884
 ,0.00007799,-0.00010746,-0.00009651,0.00004870,-0.00000938,-0.00000952
 ,-0.00000918,-0.00000633,-0.00000182,-0.00000949,0.00000938,-0.0000769
 1,-0.00078617,-0.00001859,-0.00037928,-0.00021805,-0.00004285,-0.00004
 827,0.06032942,0.00003073,0.00069757,0.00016559,0.00319622,-0.00487775
 ,-0.00180157,-0.00327134,0.00282978,0.00294738,0.11290347,-0.44311321,
 -0.13885583,-0.00450963,-0.00236471,-0.00007915,-0.00027900,-0.0000265
 2,-0.00000310,-0.00028682,-0.00003878,-0.00012529,0.00019263,0.0000359
 2,-0.00001712,-0.00006420,-0.00000201,0.00002353,0.00008418,0.00013981
 ,0.00004962,0.00008938,-0.00016409,-0.00040598,0.00014243,0.00004274,-
 0.00007773,-0.00001603,-0.00001442,0.00000726,-0.00003598,0.00001794,-
 0.00000466,0.00002185,-0.00000658,0.00000579,-0.00001747,0.00000066,0.
 00000078,-0.00008704,-0.00000160,0.00002927,-0.00001145,-0.00001948,-0
 .00001947,-0.00004157,-0.00004982,0.00000417,-0.00009897,0.00008806,0.
 00007784,-0.00002999,0.00000227,-0.00000462,0.00000549,0.00001593,0.00
 001382,0.00000802,0.00007259,0.00004452,0.00034957,0.00014175,0.000221
 35,0.00000571,-0.00022522,-0.00072554,-0.10859985,0.44685248,-0.002851
 25,0.00164743,-0.00127421,-0.00253686,0.00139594,0.00090128,0.00399618
 ,-0.00185516,-0.00204569,0.03180789,-0.13971113,-0.04417383,-0.0009462
 6,0.00015720,-0.00222169,-0.00004895,-0.00004473,0.00000055,-0.0001190
 1,-0.00005033,-0.00004576,0.00003942,0.00000596,0.00003063,-0.00000288
 ,0.00000178,-0.00000562,0.00005320,0.00012477,-0.00003474,-0.00020837,
 0.00024324,-0.00051430,0.00000650,0.00000109,0.00000066,-0.00000728,-0
 .00000311,-0.00000095,-0.00000218,0.00000631,-0.00000496,0.00000764,0.
 00000244,0.00000072,-0.00000164,-0.00000224,0.00000302,-0.00004565,0.0
 0000760,0.00005706,0.00003795,-0.00001141,0.00000674,-0.00001201,-0.00
 000799,-0.00002556,-0.00010476,0.00005887,0.00006288,-0.00001202,-0.00
 000024,0.00000075,0.00000782,0.00000008,0.00000011,-0.00001871,0.00007
 898,0.00004985,0.00004327,0.00005945,0.00011853,0.00023453,-0.00063774
 ,0.00113135,-0.02931994,0.13846931,0.04797048,-0.00043770,0.00042152,-
 0.00049124,-0.00141061,0.00314959,0.00546980,-0.00079926,-0.00054565,-
 0.00180995,0.00049892,-0.00069632,-0.00075538,-0.00047338,-0.00072447,
 -0.00090106,-0.13868755,-0.00478876,-0.15107392,0.00060233,0.00243514,
 0.00077529,-0.01855755,-0.00232169,-0.03023927,-0.00547299,0.00108680,
 0.00299413,0.00755191,0.00015482,0.01215895,0.00195956,-0.00046070,0.0
 0149837,-0.00021715,0.00033983,0.00019901,0.00108251,-0.00080904,0.000
 03929,-0.00099906,0.00018834,-0.00017089,0.00014506,0.00026285,0.00014
 552,-0.00061599,-0.00088292,-0.00126054,-0.00032251,-0.00031780,-0.000
 23789,-0.00053021,-0.00279789,0.00266525,-0.00075096,-0.00073397,-0.00
 026521,-0.00012390,0.00012657,-0.00031092,0.00008372,-0.00001243,0.000
 00884,0.00002472,-0.00010767,-0.00001831,0.00003319,-0.00010944,-0.000
 10690,0.00056251,0.00009190,0.00020649,0.00012058,-0.00026624,-0.00083
 657,0.00004402,0.00014527,-0.00007005,0.15633759,0.00018968,-0.0006375
 1,0.00017444,0.00310582,-0.00061514,-0.00394741,-0.00109021,-0.0004845
 3,0.00055019,-0.00050091,0.00015123,0.00042057,-0.00060527,0.00032907,
 0.00124040,-0.02113833,-0.03157099,-0.00769284,-0.00031523,-0.00473857
 ,-0.00123061,0.00288279,-0.00298349,-0.00236868,-0.00262835,0.00028817
 ,0.00038297,0.01453030,-0.00428472,0.03119761,-0.00002156,0.00191909,0
 .00011367,0.00019980,0.00060179,-0.00035611,-0.00147097,0.00068484,0.0
 0022350,0.00115188,-0.00032209,0.00048433,0.00018044,0.00001871,0.0000
 5843,-0.00051765,-0.00038300,-0.00043688,0.00103950,0.00010775,0.00035
 679,-0.00192087,-0.00370256,0.00215350,-0.00100894,-0.00013666,-0.0002
 3809,0.00033854,-0.00022998,-0.00037541,0.00001892,-0.00013386,0.00011
 787,-0.00008711,-0.00017110,0.00010265,0.00003336,0.00017941,0.0001767
 4,-0.00071200,-0.00028366,-0.00072452,-0.00014130,0.00027684,0.0005812
 3,0.00007653,-0.00008564,0.00001295,0.01087995,0.04065418,-0.00002813,
 -0.00020065,-0.00017135,0.00226981,-0.00077328,0.00028280,-0.00141429,
 0.00012632,-0.00211660,-0.00027393,0.00000933,-0.00009215,-0.00037226,
 0.00035438,0.00001969,-0.16944703,0.02097490,-0.34024192,0.00010015,-0
 .00091166,-0.00007055,0.00974579,-0.00215236,0.00797073,0.00106132,-0.
 00006389,0.00047713,-0.00805359,-0.00260631,-0.01846927,0.00022361,-0.
 00023311,0.00058978,0.00010272,-0.00006076,-0.00004311,0.00111929,0.00
 020040,0.00163076,0.00128060,-0.00018209,-0.00030626,0.00020450,0.0001
 1339,0.00018529,0.00029483,0.00010500,0.00018298,-0.00022520,-0.000159
 40,0.00124271,0.00164536,0.00373116,-0.00067439,0.00097161,0.00024999,
 -0.00007551,-0.00021560,0.00001891,0.00040256,-0.00002343,0.00002494,0
 .00003886,-0.00001242,-0.00002070,0.00001969,0.00003825,0.00012842,0.0
 0005150,-0.00020742,-0.00014889,-0.00014055,-0.00051900,0.00027718,0.0
 0045730,0.00007436,-0.00003730,-0.00000511,0.16298124,-0.01937423,0.35
 091947,0.00016361,-0.00001691,0.00020793,-0.00625426,0.00094024,-0.002
 47511,0.00023440,0.00012206,0.00091234,0.00091570,-0.00033358,0.000135
 66,-0.00038983,-0.00158461,-0.00024905,-0.01385880,0.00107382,0.001024
 86,-0.09418685,-0.06989956,-0.04443004,-0.00066857,0.00748590,0.004527
 85,-0.00074838,0.00065899,-0.00051056,0.00028485,-0.00157163,-0.000305
 86,-0.00023518,-0.00124180,-0.00064279,-0.02445465,-0.02256557,-0.0123
 0454,-0.00037275,-0.00008998,0.00004216,-0.00168563,-0.00022218,0.0000
 8456,-0.00025478,0.00039328,-0.00033744,0.00033976,-0.00084621,-0.0003
 9080,-0.00027027,0.00024241,0.00012519,0.00030197,0.00035889,-0.000259
 90,-0.00012671,0.00003060,0.00004108,-0.00001689,0.00009120,0.00006474
 ,-0.00376600,0.00026121,0.00256883,0.00035750,-0.00022577,0.00005160,0
 .00242879,0.00569418,0.00202936,0.01101154,0.01421413,0.01027599,-0.00
 007333,0.00001854,-0.00022567,-0.00018154,0.00017436,0.00007342,0.0003
 5221,-0.00246882,-0.00132116,0.13115408,-0.00010099,-0.00195688,0.0007
 5729,0.00242961,0.01142297,0.00103792,0.00061367,-0.00237944,-0.000891
 23,-0.00103953,-0.00206972,-0.00011084,-0.00643584,-0.00418046,-0.0017
 8545,-0.00090790,0.00715387,0.01864894,-0.06309766,-0.16978475,-0.0635
 9104,0.01300750,0.00116995,-0.00193230,0.00147148,0.00222702,-0.000266
 87,-0.00319527,-0.01069077,0.00398922,-0.00224558,0.00162988,-0.000185
 25,-0.00950224,0.00422673,0.00583453,-0.00080187,-0.00007850,0.0004006
 5,-0.00305135,0.00033155,-0.00033661,0.00007381,-0.00007530,0.00009406
 ,-0.00045431,-0.00170650,-0.00074995,0.00068523,0.00257354,-0.00081196
 ,0.00040738,0.00046139,-0.00106371,0.00012191,-0.00047897,-0.00012445,
 0.00081125,-0.00019687,-0.00029546,0.00392762,-0.00021310,-0.00119787,
 0.00072795,-0.00039875,-0.00029903,0.00775485,0.01175791,0.00433013,-0
 .00737167,-0.02201299,-0.01090703,0.00008023,0.00006526,-0.00010194,0.
 00049254,0.00005232,0.00005066,-0.00370760,0.00555242,0.00061030,0.069
 30678,0.16759821,-0.00098781,-0.00091034,-0.00029296,-0.00188862,0.002
 42930,0.00333435,0.00093631,-0.00087412,-0.00102632,0.00000779,-0.0004
 6731,-0.00025405,-0.00150531,-0.00155481,-0.00248452,-0.00177149,0.015
 71839,-0.00389157,-0.03781518,-0.06028479,-0.10488990,0.00944215,-0.00
 050305,-0.00095337,-0.00032986,0.00053530,0.00160788,-0.00358667,0.000
 03295,0.00787702,-0.00133107,0.00201120,-0.00014532,-0.00102428,0.0091
 9172,0.01000115,-0.00041323,-0.00007160,-0.00014177,-0.00210934,0.0003
 4642,-0.00027171,-0.00027196,0.00016316,-0.00045346,-0.00030592,-0.000
 79332,-0.00087619,0.00119945,0.00299663,-0.00165996,0.00001625,0.00121
 584,-0.00115771,-0.00002085,-0.00042500,-0.00005125,0.00047312,-0.0001
 4258,-0.00016696,0.00380294,-0.00039759,-0.00126424,0.00113581,0.00056
 465,-0.00041351,-0.01364001,-0.02480149,-0.01383642,0.00913922,0.00865
 523,0.00779963,0.00006119,-0.00002611,-0.00020641,0.00009407,0.0000971
 3,0.00001780,-0.00059409,-0.00160309,-0.00206447,0.04128736,0.04889728
 ,0.10586423\\0.00000048,-0.00000798,0.00000170,0.00000502,0.00001129,-
 0.00000061,-0.00000143,-0.00000052,0.00000068,-0.00000280,-0.00000194,
 0.00000188,-0.00000354,-0.00000426,0.00000202,0.00000190,0.00000133,-0
 .00000127,-0.00000706,-0.00000073,0.00000187,-0.00000072,0.00000124,0.
 00000012,-0.00000038,0.00000135,-0.00000227,-0.00000018,-0.00000355,-0
 .00000245,0.00000040,0.00000253,0.00000267,0.00000365,-0.00000105,-0.0
 0000016,-0.00000105,0.00000217,-0.00000078,-0.00000011,0.00000127,-0.0
 0000179,0.00000032,-0.00000026,-0.00000148,0.00000066,0.00000110,-0.00
 000115,0.00000031,0.00000089,-0.00000242,0.00000067,0.00000006,-0.0000
 0135,-0.00000019,0.00000058,-0.00000154,0.00000057,-0.00000168,-0.0000
 0158,0.00000048,-0.00000075,0.00000092,-0.00000191,0.00000059,0.000001
 82,0.00000287,-0.00000061,0.00000129,0.00000233,0.00000025,0.00000121,
 -0.00000076,0.00000102,0.00000128,0.00000094,-0.00000100,0.00000393,-0
 .00000044,0.00000107,-0.00000017,-0.00000005,-0.00000241,-0.00000238\\
 \@


     ON THE SURVIVAL OF THE FITTEST -
 "STRONG REPRESENTATIVES FROM EACH PAST ERA THRIVE TODAY,
 SUCH AS PROGRAMMING IN THE THIRTY YEAR OLD LANGUAGE KNOWN
 AS FORTRAN, AND EVEN IN THE ANCIENT SCRIPT KNOWN AS DIRECT
 MACHINE CODE. SOME PEOPLE MIGHT LOOK ON SUCH RELICS AS LIVING
 FOSSILS; OTHERS WOULD POINT OUT THAT EVEN A VERY OLD SPECIES
 MIGHT STILL BE FILLING A PARTICULAR ECOLOGICAL NICHE."
     -- ALAN KAY, SCI.AM. SEPTEMBER 1984
 Job cpu time:       0 days  1 hours 31 minutes 49.6 seconds.
 Elapsed time:       0 days  0 hours 11 minutes 30.0 seconds.
 File lengths (MBytes):  RWF=    324 Int=      0 D2E=      0 Chk=     10 Scr=      1
 Normal termination of Gaussian 16 at Wed Jul 18 10:58:52 2018.
