 Entering Gaussian System, Link 0=g16
 Initial command:
 /opt/software/gaussian/g16.a03/l1.exe "/localscratch/cieritan.6774944.0/Gau-7844.inp" -scrdir="/localscratch/cieritan.6774944.0/"
 Entering Link 1 = /opt/software/gaussian/g16.a03/l1.exe PID=      7845.
  
 Copyright (c) 1988,1990,1992,1993,1995,1998,2003,2009,2016,
            Gaussian, Inc.  All Rights Reserved.
  
 This is part of the Gaussian(R) 16 program.  It is based on
 the Gaussian(R) 09 system (copyright 2009, Gaussian, Inc.),
 the Gaussian(R) 03 system (copyright 2003, Gaussian, Inc.),
 the Gaussian(R) 98 system (copyright 1998, Gaussian, Inc.),
 the Gaussian(R) 94 system (copyright 1995, Gaussian, Inc.),
 the Gaussian 92(TM) system (copyright 1992, Gaussian, Inc.),
 the Gaussian 90(TM) system (copyright 1990, Gaussian, Inc.),
 the Gaussian 88(TM) system (copyright 1988, Gaussian, Inc.),
 the Gaussian 86(TM) system (copyright 1986, Carnegie Mellon
 University), and the Gaussian 82(TM) system (copyright 1983,
 Carnegie Mellon University). Gaussian is a federally registered
 trademark of Gaussian, Inc.
  
 This software contains proprietary and confidential information,
 including trade secrets, belonging to Gaussian, Inc.
  
 This software is provided under written license and may be
 used, copied, transmitted, or stored only in accord with that
 written license.
  
 The following legend is applicable only to US Government
 contracts under FAR:
  
                    RESTRICTED RIGHTS LEGEND
  
 Use, reproduction and disclosure by the US Government is
 subject to restrictions as set forth in subparagraphs (a)
 and (c) of the Commercial Computer Software - Restricted
 Rights clause in FAR 52.227-19.
  
 Gaussian, Inc.
 340 Quinnipiac St., Bldg. 40, Wallingford CT 06492
  
  
 ---------------------------------------------------------------
 Warning -- This program may not be used in any manner that
 competes with the business of Gaussian, Inc. or will provide
 assistance to any competitor of Gaussian, Inc.  The licensee
 of this program is prohibited from giving any competitor of
 Gaussian, Inc. access to this program.  By using this program,
 the user acknowledges that Gaussian, Inc. is engaged in the
 business of creating and licensing software in the field of
 computational chemistry and represents and warrants to the
 licensee that it is not a competitor of Gaussian, Inc. and that
 it will not use this program in any manner prohibited above.
 ---------------------------------------------------------------
  

 Cite this work as:
 Gaussian 16, Revision A.03,
 M. J. Frisch, G. W. Trucks, H. B. Schlegel, G. E. Scuseria, 
 M. A. Robb, J. R. Cheeseman, G. Scalmani, V. Barone, 
 G. A. Petersson, H. Nakatsuji, X. Li, M. Caricato, A. V. Marenich, 
 J. Bloino, B. G. Janesko, R. Gomperts, B. Mennucci, H. P. Hratchian, 
 J. V. Ortiz, A. F. Izmaylov, J. L. Sonnenberg, D. Williams-Young, 
 F. Ding, F. Lipparini, F. Egidi, J. Goings, B. Peng, A. Petrone, 
 T. Henderson, D. Ranasinghe, V. G. Zakrzewski, J. Gao, N. Rega, 
 G. Zheng, W. Liang, M. Hada, M. Ehara, K. Toyota, R. Fukuda, 
 J. Hasegawa, M. Ishida, T. Nakajima, Y. Honda, O. Kitao, H. Nakai, 
 T. Vreven, K. Throssell, J. A. Montgomery, Jr., J. E. Peralta, 
 F. Ogliaro, M. J. Bearpark, J. J. Heyd, E. N. Brothers, K. N. Kudin, 
 V. N. Staroverov, T. A. Keith, R. Kobayashi, J. Normand, 
 K. Raghavachari, A. P. Rendell, J. C. Burant, S. S. Iyengar, 
 J. Tomasi, M. Cossi, J. M. Millam, M. Klene, C. Adamo, R. Cammi, 
 J. W. Ochterski, R. L. Martin, K. Morokuma, O. Farkas, 
 J. B. Foresman, and D. J. Fox, Gaussian, Inc., Wallingford CT, 2016.
 
 ******************************************
 Gaussian 16:  ES64L-G16RevA.03 25-Dec-2016
                30-Jul-2018 
 ******************************************
 %rwf=/scratch/cieritan/rwf/BUTAFENACIL_1.rwf
 %chk=/scratch/cieritan/chk/BUTAFENACIL_1.chk
 %mem=4000mb
 %nproc=8
 Will use up to    8 processors via shared memory.
 ----------------------------------------------------------------------
 # opt=maxcycles=150 freq b3lyp/6-31++g(d,p) empiricaldispersion=GD3 in
 t=ultrafine scf=xqc pop=(mk,dipole)
 ----------------------------------------------------------------------
 1/6=150,18=20,19=15,26=4,38=1/1,3;
 2/9=110,12=2,17=6,18=5,40=1/2;
 3/5=1,6=6,7=1111,11=2,25=1,30=1,71=1,74=-5,75=-5,124=31/1,2,3;
 4//1;
 5/5=2,8=3,13=1,38=5/2,8;
 6/7=2,8=2,9=2,10=2,15=24,20=1,28=1/1,2;
 7//1,2,3,16;
 1/6=150,18=20,19=15,26=4/3(2);
 2/9=110/2;
 99//99;
 2/9=110/2;
 3/5=1,6=6,7=1111,11=2,25=1,30=1,71=1,74=-5,75=-5,124=31/1,2,3;
 4/5=5,16=3,69=1/1;
 5/5=2,8=3,13=1,38=5/2,8;
 7//1,2,3,16;
 1/6=150,18=20,19=15,26=4/3(-5);
 2/9=110/2;
 6/7=2,8=2,9=2,10=2,15=24,19=2,20=1,28=1/1,2;
 99/9=1/99;
 ----------------------------
 Original File: BUTAFENACIL_1
 ----------------------------
 Symbolic Z-matrix:
 Charge =  1 Multiplicity = 1
 Cl                   -3.8226   -4.01248  -0.31383 
 F                     6.48997  -0.39908   0.41489 
 F                     5.86025   0.76561  -1.23056 
 F                     5.57301   1.47393   0.75696 
 O                    -2.86423   0.20969   0.08537 
 O                    -2.89048   3.64946  -0.3604 
 O                     0.70003   0.53403  -0.60286 
 O                     2.5439   -3.41338   0.96256 
 O                    -1.30583   2.07393  -0.37345 
 O                    -4.50039  -1.29662   0.56077 
 N                     1.56858  -1.51411   0.1048 
 N                     2.97659   0.41206  -0.38605 
 C                    -3.70608   1.38061   0.08426 
 C                     0.25927  -2.14659   0.04897 
 C                     4.10851  -0.29923   0.04469 
 C                     1.67114  -0.16301  -0.31464 
 C                    -4.27653   1.64963   1.45333 
 C                    -4.6946    1.3404   -1.05262 
 C                    -2.15571  -1.96669   0.18633 
 C                    -0.88033  -1.39485   0.34002 
 C                     2.72596  -2.28684   0.58391 
 C                     3.98758  -1.55978   0.52089 
 C                    -2.55814   2.40038  -0.22914 
 C                     0.13359  -3.50833  -0.31811 
 C                    -3.34643  -1.11396   0.33185 
 C                    -2.27644  -3.31821  -0.16199 
 C                     3.06654   1.77978  -0.964 
 C                    -1.12728  -4.08935  -0.40089 
 C                     5.48352   0.37581  -0.00594 
 C                    -1.8537    4.7092   -0.62374 
 C                    -1.31034   5.14778   0.6893 
 C                    -0.02869   5.4557    0.87571 
 H                    -4.79487   2.61851   1.51946 
 H                    -5.03558   0.88149   1.71318 
 H                    -3.52975   1.60851   2.25882 
 H                    -5.23459   2.29014  -1.1868 
 H                    -4.24288   1.06769  -2.01766 
 H                    -5.47287   0.57174  -0.86247 
 H                    -0.80114  -0.34906   0.66761 
 H                     4.84282  -2.14608   0.89465 
 H                     1.02581  -4.11608  -0.52198 
 H                     3.65039   1.77929  -1.90238 
 H                     2.05382   2.15748  -1.21878 
 H                     3.5061    2.49356  -0.24682 
 H                    -1.22854  -5.14979  -0.66173 
 H                    -2.51097   5.4682   -1.10479 
 H                    -1.1153    4.30737  -1.33873 
 H                    -2.05354   5.24017   1.48835 
 H                     0.35533   5.81773   1.8268 
 H                     0.73611   5.39502   0.11037 
 H                    -1.08649   1.01485  -0.28988 
 

 GradGradGradGradGradGradGradGradGradGradGradGradGradGradGradGradGradGrad
 Berny optimization.
 Initialization pass.
                           ----------------------------
                           !    Initial Parameters    !
                           ! (Angstroms and Degrees)  !
 --------------------------                            --------------------------
 ! Name  Definition              Value          Derivative Info.                !
 --------------------------------------------------------------------------------
 ! R1    R(1,26)                 1.7017         estimate D2E/DX2                !
 ! R2    R(2,29)                 1.3381         estimate D2E/DX2                !
 ! R3    R(3,29)                 1.3392         estimate D2E/DX2                !
 ! R4    R(4,29)                 1.3401         estimate D2E/DX2                !
 ! R5    R(5,13)                 1.4421         estimate D2E/DX2                !
 ! R6    R(5,25)                 1.4301         estimate D2E/DX2                !
 ! R7    R(6,23)                 1.2992         estimate D2E/DX2                !
 ! R8    R(6,30)                 1.5058         estimate D2E/DX2                !
 ! R9    R(7,16)                 1.2296         estimate D2E/DX2                !
 ! R10   R(8,21)                 1.2023         estimate D2E/DX2                !
 ! R11   R(9,23)                 1.3022         estimate D2E/DX2                !
 ! R12   R(9,51)                 1.0848         estimate D2E/DX2                !
 ! R13   R(10,25)                1.1905         estimate D2E/DX2                !
 ! R14   R(11,14)                1.4551         estimate D2E/DX2                !
 ! R15   R(11,16)                1.4184         estimate D2E/DX2                !
 ! R16   R(11,21)                1.4718         estimate D2E/DX2                !
 ! R17   R(12,15)                1.4045         estimate D2E/DX2                !
 ! R18   R(12,16)                1.4283         estimate D2E/DX2                !
 ! R19   R(12,27)                1.4875         estimate D2E/DX2                !
 ! R20   R(13,17)                1.5074         estimate D2E/DX2                !
 ! R21   R(13,18)                1.5071         estimate D2E/DX2                !
 ! R22   R(13,23)                1.5671         estimate D2E/DX2                !
 ! R23   R(14,20)                1.3959         estimate D2E/DX2                !
 ! R24   R(14,24)                1.4159         estimate D2E/DX2                !
 ! R25   R(15,22)                1.3529         estimate D2E/DX2                !
 ! R26   R(15,29)                1.5326         estimate D2E/DX2                !
 ! R27   R(17,33)                1.1008         estimate D2E/DX2                !
 ! R28   R(17,34)                1.1107         estimate D2E/DX2                !
 ! R29   R(17,35)                1.0992         estimate D2E/DX2                !
 ! R30   R(18,36)                1.1007         estimate D2E/DX2                !
 ! R31   R(18,37)                1.0999         estimate D2E/DX2                !
 ! R32   R(18,38)                1.1103         estimate D2E/DX2                !
 ! R33   R(19,20)                1.4061         estimate D2E/DX2                !
 ! R34   R(19,25)                1.4718         estimate D2E/DX2                !
 ! R35   R(19,26)                1.4009         estimate D2E/DX2                !
 ! R36   R(20,39)                1.0988         estimate D2E/DX2                !
 ! R37   R(21,22)                1.4575         estimate D2E/DX2                !
 ! R38   R(22,40)                1.1022         estimate D2E/DX2                !
 ! R39   R(24,28)                1.3908         estimate D2E/DX2                !
 ! R40   R(24,41)                1.0986         estimate D2E/DX2                !
 ! R41   R(26,28)                1.4044         estimate D2E/DX2                !
 ! R42   R(27,42)                1.1052         estimate D2E/DX2                !
 ! R43   R(27,43)                1.1105         estimate D2E/DX2                !
 ! R44   R(27,44)                1.1032         estimate D2E/DX2                !
 ! R45   R(28,45)                1.0967         estimate D2E/DX2                !
 ! R46   R(30,31)                1.4872         estimate D2E/DX2                !
 ! R47   R(30,46)                1.1133         estimate D2E/DX2                !
 ! R48   R(30,47)                1.1036         estimate D2E/DX2                !
 ! R49   R(31,32)                1.3312         estimate D2E/DX2                !
 ! R50   R(31,48)                1.0952         estimate D2E/DX2                !
 ! R51   R(32,49)                1.0877         estimate D2E/DX2                !
 ! R52   R(32,50)                1.0837         estimate D2E/DX2                !
 ! A1    A(13,5,25)            123.6959         estimate D2E/DX2                !
 ! A2    A(23,6,30)            121.2104         estimate D2E/DX2                !
 ! A3    A(23,9,51)            115.5097         estimate D2E/DX2                !
 ! A4    A(14,11,16)           117.8876         estimate D2E/DX2                !
 ! A5    A(14,11,21)           119.4625         estimate D2E/DX2                !
 ! A6    A(16,11,21)           122.6497         estimate D2E/DX2                !
 ! A7    A(15,12,16)           121.1557         estimate D2E/DX2                !
 ! A8    A(15,12,27)           122.4155         estimate D2E/DX2                !
 ! A9    A(16,12,27)           116.4159         estimate D2E/DX2                !
 ! A10   A(5,13,17)            111.4148         estimate D2E/DX2                !
 ! A11   A(5,13,18)            111.2114         estimate D2E/DX2                !
 ! A12   A(5,13,23)             95.7907         estimate D2E/DX2                !
 ! A13   A(17,13,18)           116.2117         estimate D2E/DX2                !
 ! A14   A(17,13,23)           110.0421         estimate D2E/DX2                !
 ! A15   A(18,13,23)           110.3023         estimate D2E/DX2                !
 ! A16   A(11,14,20)           119.5054         estimate D2E/DX2                !
 ! A17   A(11,14,24)           120.5187         estimate D2E/DX2                !
 ! A18   A(20,14,24)           119.9682         estimate D2E/DX2                !
 ! A19   A(12,15,22)           120.5148         estimate D2E/DX2                !
 ! A20   A(12,15,29)           119.3306         estimate D2E/DX2                !
 ! A21   A(22,15,29)           120.1456         estimate D2E/DX2                !
 ! A22   A(7,16,11)            123.5157         estimate D2E/DX2                !
 ! A23   A(7,16,12)            118.8087         estimate D2E/DX2                !
 ! A24   A(11,16,12)           117.6708         estimate D2E/DX2                !
 ! A25   A(13,17,33)           112.9446         estimate D2E/DX2                !
 ! A26   A(13,17,34)           110.3456         estimate D2E/DX2                !
 ! A27   A(13,17,35)           113.6905         estimate D2E/DX2                !
 ! A28   A(33,17,34)           105.8334         estimate D2E/DX2                !
 ! A29   A(33,17,35)           107.9878         estimate D2E/DX2                !
 ! A30   A(34,17,35)           105.4843         estimate D2E/DX2                !
 ! A31   A(13,18,36)           112.9987         estimate D2E/DX2                !
 ! A32   A(13,18,37)           113.5229         estimate D2E/DX2                !
 ! A33   A(13,18,38)           110.4299         estimate D2E/DX2                !
 ! A34   A(36,18,37)           107.966          estimate D2E/DX2                !
 ! A35   A(36,18,38)           105.9232         estimate D2E/DX2                !
 ! A36   A(37,18,38)           105.4563         estimate D2E/DX2                !
 ! A37   A(20,19,25)           119.1682         estimate D2E/DX2                !
 ! A38   A(20,19,26)           119.8466         estimate D2E/DX2                !
 ! A39   A(25,19,26)           120.9192         estimate D2E/DX2                !
 ! A40   A(14,20,19)           119.9131         estimate D2E/DX2                !
 ! A41   A(14,20,39)           121.0578         estimate D2E/DX2                !
 ! A42   A(19,20,39)           119.0141         estimate D2E/DX2                !
 ! A43   A(8,21,11)            118.3831         estimate D2E/DX2                !
 ! A44   A(8,21,22)            127.7406         estimate D2E/DX2                !
 ! A45   A(11,21,22)           113.8733         estimate D2E/DX2                !
 ! A46   A(15,22,21)           123.8746         estimate D2E/DX2                !
 ! A47   A(15,22,40)           123.0671         estimate D2E/DX2                !
 ! A48   A(21,22,40)           113.0563         estimate D2E/DX2                !
 ! A49   A(6,23,9)             118.4136         estimate D2E/DX2                !
 ! A50   A(6,23,13)            117.2872         estimate D2E/DX2                !
 ! A51   A(9,23,13)            124.2975         estimate D2E/DX2                !
 ! A52   A(14,24,28)           119.8461         estimate D2E/DX2                !
 ! A53   A(14,24,41)           120.5336         estimate D2E/DX2                !
 ! A54   A(28,24,41)           119.6121         estimate D2E/DX2                !
 ! A55   A(5,25,10)            120.1288         estimate D2E/DX2                !
 ! A56   A(5,25,19)            104.2661         estimate D2E/DX2                !
 ! A57   A(10,25,19)           135.5852         estimate D2E/DX2                !
 ! A58   A(1,26,19)            119.6105         estimate D2E/DX2                !
 ! A59   A(1,26,28)            120.2839         estimate D2E/DX2                !
 ! A60   A(19,26,28)           120.1005         estimate D2E/DX2                !
 ! A61   A(12,27,42)           111.1873         estimate D2E/DX2                !
 ! A62   A(12,27,43)           110.287          estimate D2E/DX2                !
 ! A63   A(12,27,44)           111.4942         estimate D2E/DX2                !
 ! A64   A(42,27,43)           106.6858         estimate D2E/DX2                !
 ! A65   A(42,27,44)           109.9848         estimate D2E/DX2                !
 ! A66   A(43,27,44)           107.0051         estimate D2E/DX2                !
 ! A67   A(24,28,26)           120.154          estimate D2E/DX2                !
 ! A68   A(24,28,45)           120.1191         estimate D2E/DX2                !
 ! A69   A(26,28,45)           119.7248         estimate D2E/DX2                !
 ! A70   A(2,29,3)             104.1554         estimate D2E/DX2                !
 ! A71   A(2,29,4)             104.1975         estimate D2E/DX2                !
 ! A72   A(2,29,15)            114.164          estimate D2E/DX2                !
 ! A73   A(3,29,4)             105.2645         estimate D2E/DX2                !
 ! A74   A(3,29,15)            114.2542         estimate D2E/DX2                !
 ! A75   A(4,29,15)            113.7043         estimate D2E/DX2                !
 ! A76   A(6,30,31)            107.741          estimate D2E/DX2                !
 ! A77   A(6,30,46)             98.5617         estimate D2E/DX2                !
 ! A78   A(6,30,47)            108.5267         estimate D2E/DX2                !
 ! A79   A(31,30,46)           113.3371         estimate D2E/DX2                !
 ! A80   A(31,30,47)           115.7812         estimate D2E/DX2                !
 ! A81   A(46,30,47)           111.3031         estimate D2E/DX2                !
 ! A82   A(30,31,32)           122.9291         estimate D2E/DX2                !
 ! A83   A(30,31,48)           114.9057         estimate D2E/DX2                !
 ! A84   A(32,31,48)           122.1184         estimate D2E/DX2                !
 ! A85   A(31,32,49)           122.6377         estimate D2E/DX2                !
 ! A86   A(31,32,50)           124.584          estimate D2E/DX2                !
 ! A87   A(49,32,50)           112.7689         estimate D2E/DX2                !
 ! D1    D(25,5,13,17)          65.4748         estimate D2E/DX2                !
 ! D2    D(25,5,13,18)         -65.9117         estimate D2E/DX2                !
 ! D3    D(25,5,13,23)         179.6662         estimate D2E/DX2                !
 ! D4    D(13,5,25,10)          -0.4865         estimate D2E/DX2                !
 ! D5    D(13,5,25,19)         178.1312         estimate D2E/DX2                !
 ! D6    D(30,6,23,9)           -2.1831         estimate D2E/DX2                !
 ! D7    D(30,6,23,13)         178.2714         estimate D2E/DX2                !
 ! D8    D(23,6,30,31)         -85.9853         estimate D2E/DX2                !
 ! D9    D(23,6,30,46)         156.06           estimate D2E/DX2                !
 ! D10   D(23,6,30,47)          40.0883         estimate D2E/DX2                !
 ! D11   D(51,9,23,6)         -177.8642         estimate D2E/DX2                !
 ! D12   D(51,9,23,13)           1.6468         estimate D2E/DX2                !
 ! D13   D(16,11,14,20)        -35.9587         estimate D2E/DX2                !
 ! D14   D(16,11,14,24)        143.0268         estimate D2E/DX2                !
 ! D15   D(21,11,14,20)        144.2043         estimate D2E/DX2                !
 ! D16   D(21,11,14,24)        -36.8102         estimate D2E/DX2                !
 ! D17   D(14,11,16,7)           6.9553         estimate D2E/DX2                !
 ! D18   D(14,11,16,12)       -173.8462         estimate D2E/DX2                !
 ! D19   D(21,11,16,7)        -173.2132         estimate D2E/DX2                !
 ! D20   D(21,11,16,12)          5.9852         estimate D2E/DX2                !
 ! D21   D(14,11,21,8)          -2.5982         estimate D2E/DX2                !
 ! D22   D(14,11,21,22)        176.8283         estimate D2E/DX2                !
 ! D23   D(16,11,21,8)         177.5729         estimate D2E/DX2                !
 ! D24   D(16,11,21,22)         -3.0007         estimate D2E/DX2                !
 ! D25   D(16,12,15,22)          0.9953         estimate D2E/DX2                !
 ! D26   D(16,12,15,29)       -177.916          estimate D2E/DX2                !
 ! D27   D(27,12,15,22)       -177.6507         estimate D2E/DX2                !
 ! D28   D(27,12,15,29)          3.438          estimate D2E/DX2                !
 ! D29   D(15,12,16,7)         174.2825         estimate D2E/DX2                !
 ! D30   D(15,12,16,11)         -4.9548         estimate D2E/DX2                !
 ! D31   D(27,12,16,7)          -6.9937         estimate D2E/DX2                !
 ! D32   D(27,12,16,11)        173.7689         estimate D2E/DX2                !
 ! D33   D(15,12,27,42)         62.8386         estimate D2E/DX2                !
 ! D34   D(15,12,27,43)       -179.0239         estimate D2E/DX2                !
 ! D35   D(15,12,27,44)        -60.2947         estimate D2E/DX2                !
 ! D36   D(16,12,27,42)       -115.8677         estimate D2E/DX2                !
 ! D37   D(16,12,27,43)          2.2698         estimate D2E/DX2                !
 ! D38   D(16,12,27,44)        120.9991         estimate D2E/DX2                !
 ! D39   D(5,13,17,33)         171.1562         estimate D2E/DX2                !
 ! D40   D(5,13,17,34)         -70.6161         estimate D2E/DX2                !
 ! D41   D(5,13,17,35)          47.655          estimate D2E/DX2                !
 ! D42   D(18,13,17,33)        -60.0684         estimate D2E/DX2                !
 ! D43   D(18,13,17,34)         58.1593         estimate D2E/DX2                !
 ! D44   D(18,13,17,35)        176.4304         estimate D2E/DX2                !
 ! D45   D(23,13,17,33)         66.1789         estimate D2E/DX2                !
 ! D46   D(23,13,17,34)       -175.5934         estimate D2E/DX2                !
 ! D47   D(23,13,17,35)        -57.3223         estimate D2E/DX2                !
 ! D48   D(5,13,18,36)        -170.214          estimate D2E/DX2                !
 ! D49   D(5,13,18,37)         -46.8323         estimate D2E/DX2                !
 ! D50   D(5,13,18,38)          71.3519         estimate D2E/DX2                !
 ! D51   D(17,13,18,36)         60.9119         estimate D2E/DX2                !
 ! D52   D(17,13,18,37)       -175.7063         estimate D2E/DX2                !
 ! D53   D(17,13,18,38)        -57.5221         estimate D2E/DX2                !
 ! D54   D(23,13,18,36)        -65.2047         estimate D2E/DX2                !
 ! D55   D(23,13,18,37)         58.1771         estimate D2E/DX2                !
 ! D56   D(23,13,18,38)        176.3613         estimate D2E/DX2                !
 ! D57   D(5,13,23,6)          178.2438         estimate D2E/DX2                !
 ! D58   D(5,13,23,9)           -1.2722         estimate D2E/DX2                !
 ! D59   D(17,13,23,6)         -66.4381         estimate D2E/DX2                !
 ! D60   D(17,13,23,9)         114.0458         estimate D2E/DX2                !
 ! D61   D(18,13,23,6)          63.0759         estimate D2E/DX2                !
 ! D62   D(18,13,23,9)        -116.4402         estimate D2E/DX2                !
 ! D63   D(11,14,20,19)        174.9679         estimate D2E/DX2                !
 ! D64   D(11,14,20,39)         -3.6094         estimate D2E/DX2                !
 ! D65   D(24,14,20,19)         -4.0233         estimate D2E/DX2                !
 ! D66   D(24,14,20,39)        177.3994         estimate D2E/DX2                !
 ! D67   D(11,14,24,28)       -178.3216         estimate D2E/DX2                !
 ! D68   D(11,14,24,41)          2.7252         estimate D2E/DX2                !
 ! D69   D(20,14,24,28)          0.6592         estimate D2E/DX2                !
 ! D70   D(20,14,24,41)       -178.294          estimate D2E/DX2                !
 ! D71   D(12,15,22,21)          2.22           estimate D2E/DX2                !
 ! D72   D(12,15,22,40)       -178.3254         estimate D2E/DX2                !
 ! D73   D(29,15,22,21)       -178.8776         estimate D2E/DX2                !
 ! D74   D(29,15,22,40)          0.577          estimate D2E/DX2                !
 ! D75   D(12,15,29,2)        -179.3343         estimate D2E/DX2                !
 ! D76   D(12,15,29,3)         -59.5895         estimate D2E/DX2                !
 ! D77   D(12,15,29,4)          61.2871         estimate D2E/DX2                !
 ! D78   D(22,15,29,2)           1.7504         estimate D2E/DX2                !
 ! D79   D(22,15,29,3)         121.4951         estimate D2E/DX2                !
 ! D80   D(22,15,29,4)        -117.6283         estimate D2E/DX2                !
 ! D81   D(25,19,20,14)       -172.3215         estimate D2E/DX2                !
 ! D82   D(25,19,20,39)          6.2848         estimate D2E/DX2                !
 ! D83   D(26,19,20,14)          4.753          estimate D2E/DX2                !
 ! D84   D(26,19,20,39)       -176.6407         estimate D2E/DX2                !
 ! D85   D(20,19,25,5)          22.211          estimate D2E/DX2                !
 ! D86   D(20,19,25,10)       -159.4973         estimate D2E/DX2                !
 ! D87   D(26,19,25,5)        -154.8312         estimate D2E/DX2                !
 ! D88   D(26,19,25,10)         23.4605         estimate D2E/DX2                !
 ! D89   D(20,19,26,1)         178.697          estimate D2E/DX2                !
 ! D90   D(20,19,26,28)         -2.1209         estimate D2E/DX2                !
 ! D91   D(25,19,26,1)          -4.2808         estimate D2E/DX2                !
 ! D92   D(25,19,26,28)        174.9014         estimate D2E/DX2                !
 ! D93   D(8,21,22,15)         178.1318         estimate D2E/DX2                !
 ! D94   D(8,21,22,40)          -1.3715         estimate D2E/DX2                !
 ! D95   D(11,21,22,15)         -1.2302         estimate D2E/DX2                !
 ! D96   D(11,21,22,40)        179.2666         estimate D2E/DX2                !
 ! D97   D(14,24,28,26)          1.9813         estimate D2E/DX2                !
 ! D98   D(14,24,28,45)       -178.5581         estimate D2E/DX2                !
 ! D99   D(41,24,28,26)       -179.0558         estimate D2E/DX2                !
 ! D100  D(41,24,28,45)          0.4049         estimate D2E/DX2                !
 ! D101  D(1,26,28,24)         177.9272         estimate D2E/DX2                !
 ! D102  D(1,26,28,45)          -1.5355         estimate D2E/DX2                !
 ! D103  D(19,26,28,24)         -1.2494         estimate D2E/DX2                !
 ! D104  D(19,26,28,45)        179.2879         estimate D2E/DX2                !
 ! D105  D(6,30,31,32)         142.6565         estimate D2E/DX2                !
 ! D106  D(6,30,31,48)         -39.7875         estimate D2E/DX2                !
 ! D107  D(46,30,31,32)       -109.389          estimate D2E/DX2                !
 ! D108  D(46,30,31,48)         68.1671         estimate D2E/DX2                !
 ! D109  D(47,30,31,32)         20.9869         estimate D2E/DX2                !
 ! D110  D(47,30,31,48)       -161.4571         estimate D2E/DX2                !
 ! D111  D(30,31,32,49)        177.242          estimate D2E/DX2                !
 ! D112  D(30,31,32,50)         -1.5653         estimate D2E/DX2                !
 ! D113  D(48,31,32,49)         -0.1406         estimate D2E/DX2                !
 ! D114  D(48,31,32,50)       -178.9479         estimate D2E/DX2                !
 --------------------------------------------------------------------------------
 Trust Radius=3.00D-01 FncErr=1.00D-07 GrdErr=1.00D-06 EigMax=2.50D+02 EigMin=1.00D-04
 Number of steps in this run=    150 maximum allowed number of steps=    306.
 GradGradGradGradGradGradGradGradGradGradGradGradGradGradGradGradGradGrad

 Stoichiometry    C20H19ClF3N2O6(1+)
 Framework group  C1[X(C20H19ClF3N2O6)]
 Deg. of freedom   147
 Full point group                 C1      NOp   1
 Largest Abelian subgroup         C1      NOp   1
 Largest concise Abelian subgroup C1      NOp   1
                         Standard orientation:                         
 ---------------------------------------------------------------------
 Center     Atomic      Atomic             Coordinates (Angstroms)
 Number     Number       Type             X           Y           Z
 ---------------------------------------------------------------------
      1         17           0       -3.822596   -4.012479   -0.313826
      2          9           0        6.489973   -0.399084    0.414889
      3          9           0        5.860253    0.765614   -1.230558
      4          9           0        5.573006    1.473928    0.756961
      5          8           0       -2.864232    0.209690    0.085372
      6          8           0       -2.890483    3.649464   -0.360403
      7          8           0        0.700029    0.534026   -0.602862
      8          8           0        2.543900   -3.413379    0.962559
      9          8           0       -1.305826    2.073932   -0.373453
     10          8           0       -4.500392   -1.296615    0.560767
     11          7           0        1.568577   -1.514112    0.104796
     12          7           0        2.976594    0.412056   -0.386047
     13          6           0       -3.706082    1.380612    0.084257
     14          6           0        0.259265   -2.146588    0.048968
     15          6           0        4.108509   -0.299227    0.044691
     16          6           0        1.671143   -0.163008   -0.314639
     17          6           0       -4.276531    1.649630    1.453332
     18          6           0       -4.694598    1.340397   -1.052619
     19          6           0       -2.155714   -1.966686    0.186332
     20          6           0       -0.880333   -1.394850    0.340015
     21          6           0        2.725964   -2.286841    0.583905
     22          6           0        3.987584   -1.559781    0.520888
     23          6           0       -2.558143    2.400378   -0.229137
     24          6           0        0.133593   -3.508332   -0.318109
     25          6           0       -3.346429   -1.113956    0.331848
     26          6           0       -2.276442   -3.318214   -0.161990
     27          6           0        3.066539    1.779781   -0.964000
     28          6           0       -1.127284   -4.089350   -0.400885
     29          6           0        5.483520    0.375813   -0.005942
     30          6           0       -1.853698    4.709201   -0.623741
     31          6           0       -1.310338    5.147779    0.689300
     32          6           0       -0.028688    5.455696    0.875708
     33          1           0       -4.794873    2.618511    1.519463
     34          1           0       -5.035578    0.881494    1.713184
     35          1           0       -3.529752    1.608508    2.258825
     36          1           0       -5.234585    2.290144   -1.186804
     37          1           0       -4.242883    1.067686   -2.017659
     38          1           0       -5.472874    0.571741   -0.862466
     39          1           0       -0.801143   -0.349057    0.667607
     40          1           0        4.842816   -2.146084    0.894646
     41          1           0        1.025810   -4.116077   -0.521980
     42          1           0        3.650387    1.779286   -1.902379
     43          1           0        2.053822    2.157479   -1.218777
     44          1           0        3.506103    2.493559   -0.246823
     45          1           0       -1.228539   -5.149791   -0.661732
     46          1           0       -2.510969    5.468203   -1.104791
     47          1           0       -1.115301    4.307373   -1.338727
     48          1           0       -2.053544    5.240170    1.488354
     49          1           0        0.355327    5.817732    1.826797
     50          1           0        0.736106    5.395021    0.110368
     51          1           0       -1.086490    1.014853   -0.289877
 ---------------------------------------------------------------------
 Rotational constants (GHZ):           0.1483519           0.0856436           0.0566916
 Standard basis: 6-31++G(d,p) (6D, 7F)
 There are   726 symmetry adapted cartesian basis functions of A   symmetry.
 There are   726 symmetry adapted basis functions of A   symmetry.
   726 basis functions,  1200 primitive gaussians,   726 cartesian basis functions
   122 alpha electrons      122 beta electrons
       nuclear repulsion energy      3566.7294276418 Hartrees.
 NAtoms=   51 NActive=   51 NUniq=   51 SFac= 1.00D+00 NAtFMM=   60 NAOKFM=F Big=F
 Integral buffers will be    131072 words long.
 Raffenetti 2 integral format.
 Two-electron integral symmetry is turned on.
 Nuclear repulsion after empirical dispersion term =     3566.6675927298 Hartrees.
 One-electron integrals computed using PRISM.
 NBasis=   726 RedAO= T EigKep=  1.31D-06  NBF=   726
 NBsUse=   723 1.00D-06 EigRej=  7.61D-07 NBFU=   723
 ExpMin= 3.60D-02 ExpMax= 2.52D+04 ExpMxC= 3.78D+03 IAcc=3 IRadAn=         5 AccDes= 0.00D+00
 Harris functional with IExCor=  402 and IRadAn=       5 diagonalized for initial guess.
 HarFok:  IExCor=  402 AccDes= 0.00D+00 IRadAn=         5 IDoV= 1 UseB2=F ITyADJ=14
 ICtDFT=  3500011 ScaDFX=  1.000000  1.000000  1.000000  1.000000
 FoFCou: FMM=F IPFlag=           0 FMFlag=      100000 FMFlg1=           0
         NFxFlg=           0 DoJE=T BraDBF=F KetDBF=T FulRan=T
         wScrn=  0.000000 ICntrl=       500 IOpCl=  0 I1Cent=   200000004 NGrid=           0
         NMat0=    1 NMatS0=      1 NMatT0=    0 NMatD0=    1 NMtDS0=    0 NMtDT0=    0
 Petite list used in FoFCou.
 Requested convergence on RMS density matrix=1.00D-08 within  32 cycles.
 Requested convergence on MAX density matrix=1.00D-06.
 Requested convergence on             energy=1.00D-06.
 No special actions if energy rises.
 EnCoef did     2 forward-backward iterations
 EnCoef did     1 forward-backward iterations
 SCF Done:  E(RB3LYP) =  -2094.01814537     A.U. after   19 cycles
            NFock= 19  Conv=0.27D-08     -V/T= 2.0079
 QCSCF skips out because SCF is already converged.

 **********************************************************************

            Population analysis using the SCF density.

 **********************************************************************

 Orbital symmetries:
       Occupied  (A) (A) (A) (A) (A) (A) (A) (A) (A) (A) (A) (A)
                 (A) (A) (A) (A) (A) (A) (A) (A) (A) (A) (A) (A)
                 (A) (A) (A) (A) (A) (A) (A) (A) (A) (A) (A) (A)
                 (A) (A) (A) (A) (A) (A) (A) (A) (A) (A) (A) (A)
                 (A) (A) (A) (A) (A) (A) (A) (A) (A) (A) (A) (A)
                 (A) (A) (A) (A) (A) (A) (A) (A) (A) (A) (A) (A)
                 (A) (A) (A) (A) (A) (A) (A) (A) (A) (A) (A) (A)
                 (A) (A) (A) (A) (A) (A) (A) (A) (A) (A) (A) (A)
                 (A) (A) (A) (A) (A) (A) (A) (A) (A) (A) (A) (A)
                 (A) (A) (A) (A) (A) (A) (A) (A) (A) (A) (A) (A)
                 (A) (A)
       Virtual   (A) (A) (A) (A) (A) (A) (A) (A) (A) (A) (A) (A)
                 (A) (A) (A) (A) (A) (A) (A) (A) (A) (A) (A) (A)
                 (A) (A) (A) (A) (A) (A) (A) (A) (A) (A) (A) (A)
                 (A) (A) (A) (A) (A) (A) (A) (A) (A) (A) (A) (A)
                 (A) (A) (A) (A) (A) (A) (A) (A) (A) (A) (A) (A)
                 (A) (A) (A) (A) (A) (A) (A) (A) (A) (A) (A) (A)
                 (A) (A) (A) (A) (A) (A) (A) (A) (A) (A) (A) (A)
                 (A) (A) (A) (A) (A) (A) (A) (A) (A) (A) (A) (A)
                 (A) (A) (A) (A) (A) (A) (A) (A) (A) (A) (A) (A)
                 (A) (A) (A) (A) (A) (A) (A) (A) (A) (A) (A) (A)
                 (A) (A) (A) (A) (A) (A) (A) (A) (A) (A) (A) (A)
                 (A) (A) (A) (A) (A) (A) (A) (A) (A) (A) (A) (A)
                 (A) (A) (A) (A) (A) (A) (A) (A) (A) (A) (A) (A)
                 (A) (A) (A) (A) (A) (A) (A) (A) (A) (A) (A) (A)
                 (A) (A) (A) (A) (A) (A) (A) (A) (A) (A) (A) (A)
                 (A) (A) (A) (A) (A) (A) (A) (A) (A) (A) (A) (A)
                 (A) (A) (A) (A) (A) (A) (A) (A) (A) (A) (A) (A)
                 (A) (A) (A) (A) (A) (A) (A) (A) (A) (A) (A) (A)
                 (A) (A) (A) (A) (A) (A) (A) (A) (A) (A) (A) (A)
                 (A) (A) (A) (A) (A) (A) (A) (A) (A) (A) (A) (A)
                 (A) (A) (A) (A) (A) (A) (A) (A) (A) (A) (A) (A)
                 (A) (A) (A) (A) (A) (A) (A) (A) (A) (A) (A) (A)
                 (A) (A) (A) (A) (A) (A) (A) (A) (A) (A) (A) (A)
                 (A) (A) (A) (A) (A) (A) (A) (A) (A) (A) (A) (A)
                 (A) (A) (A) (A) (A) (A) (A) (A) (A) (A) (A) (A)
                 (A) (A) (A) (A) (A) (A) (A) (A) (A) (A) (A) (A)
                 (A) (A) (A) (A) (A) (A) (A) (A) (A) (A) (A) (A)
                 (A) (A) (A) (A) (A) (A) (A) (A) (A) (A) (A) (A)
                 (A) (A) (A) (A) (A) (A) (A) (A) (A) (A) (A) (A)
                 (A) (A) (A) (A) (A) (A) (A) (A) (A) (A) (A) (A)
                 (A) (A) (A) (A) (A) (A) (A) (A) (A) (A) (A) (A)
                 (A) (A) (A) (A) (A) (A) (A) (A) (A) (A) (A) (A)
                 (A) (A) (A) (A) (A) (A) (A) (A) (A) (A) (A) (A)
                 (A) (A) (A) (A) (A) (A) (A) (A) (A) (A) (A) (A)
                 (A) (A) (A) (A) (A) (A) (A) (A) (A) (A) (A) (A)
                 (A) (A) (A) (A) (A) (A) (A) (A) (A) (A) (A) (A)
                 (A) (A) (A) (A) (A) (A) (A) (A) (A) (A) (A) (A)
                 (A) (A) (A) (A) (A) (A) (A) (A) (A) (A) (A) (A)
                 (A) (A) (A) (A) (A) (A) (A) (A) (A) (A) (A) (A)
                 (A) (A) (A) (A) (A) (A) (A) (A) (A) (A) (A) (A)
                 (A) (A) (A) (A) (A) (A) (A) (A) (A) (A) (A) (A)
                 (A) (A) (A) (A) (A) (A) (A) (A) (A) (A) (A) (A)
                 (A) (A) (A) (A) (A) (A) (A) (A) (A) (A) (A) (A)
                 (A) (A) (A) (A) (A) (A) (A) (A) (A) (A) (A) (A)
                 (A) (A) (A) (A) (A) (A) (A) (A) (A) (A) (A) (A)
                 (A) (A) (A) (A) (A) (A) (A) (A) (A) (A) (A) (A)
                 (A) (A) (A) (A) (A) (A) (A) (A) (A) (A) (A) (A)
                 (A) (A) (A) (A) (A) (A) (A) (A) (A) (A) (A) (A)
                 (A) (A) (A) (A) (A) (A) (A) (A) (A) (A) (A) (A)
                 (A) (A) (A) (A) (A) (A) (A) (A) (A) (A) (A) (A)
                 (A)
 The electronic state is 1-A.
 Alpha  occ. eigenvalues -- -101.65716 -24.85406 -24.85394 -24.85125 -19.40040
 Alpha  occ. eigenvalues --  -19.39868 -19.32768 -19.28339 -19.28071 -19.26262
 Alpha  occ. eigenvalues --  -14.54397 -14.53528 -10.56945 -10.53612 -10.48219
 Alpha  occ. eigenvalues --  -10.45955 -10.43814 -10.43645 -10.41369 -10.40957
 Alpha  occ. eigenvalues --  -10.37884 -10.37255 -10.35084 -10.34314 -10.33893
 Alpha  occ. eigenvalues --  -10.33872 -10.33757 -10.33003 -10.32565 -10.32427
 Alpha  occ. eigenvalues --  -10.32319 -10.32290  -9.57258  -7.33692  -7.32713
 Alpha  occ. eigenvalues --   -7.32598  -1.44061  -1.34305  -1.34012  -1.31673
 Alpha  occ. eigenvalues --   -1.24294  -1.23025  -1.21391  -1.18508  -1.16571
 Alpha  occ. eigenvalues --   -1.10581  -1.07153  -1.01909  -0.97713  -0.95888
 Alpha  occ. eigenvalues --   -0.94414  -0.94101  -0.89954  -0.87816  -0.87129
 Alpha  occ. eigenvalues --   -0.84369  -0.84339  -0.83852  -0.81730  -0.80211
 Alpha  occ. eigenvalues --   -0.78763  -0.77654  -0.75641  -0.74845  -0.72779
 Alpha  occ. eigenvalues --   -0.71661  -0.71174  -0.70973  -0.70385  -0.69801
 Alpha  occ. eigenvalues --   -0.67311  -0.66672  -0.66295  -0.65239  -0.63207
 Alpha  occ. eigenvalues --   -0.61945  -0.61573  -0.60942  -0.60734  -0.60391
 Alpha  occ. eigenvalues --   -0.59679  -0.59317  -0.58918  -0.58519  -0.58366
 Alpha  occ. eigenvalues --   -0.58188  -0.58003  -0.57794  -0.56783  -0.56234
 Alpha  occ. eigenvalues --   -0.56141  -0.55411  -0.55250  -0.54268  -0.54170
 Alpha  occ. eigenvalues --   -0.53815  -0.53277  -0.53217  -0.52864  -0.52555
 Alpha  occ. eigenvalues --   -0.51775  -0.51638  -0.51236  -0.51065  -0.50726
 Alpha  occ. eigenvalues --   -0.50227  -0.50066  -0.49717  -0.49421  -0.48776
 Alpha  occ. eigenvalues --   -0.47861  -0.45956  -0.44807  -0.43707  -0.43192
 Alpha  occ. eigenvalues --   -0.41757  -0.40756  -0.40127  -0.39361  -0.38483
 Alpha  occ. eigenvalues --   -0.37415  -0.35474
 Alpha virt. eigenvalues --   -0.21289  -0.18954  -0.17959  -0.14833  -0.14439
 Alpha virt. eigenvalues --   -0.12994  -0.12315  -0.10273  -0.09854  -0.09745
 Alpha virt. eigenvalues --   -0.09045  -0.08415  -0.08085  -0.07850  -0.07430
 Alpha virt. eigenvalues --   -0.07075  -0.06951  -0.06578  -0.06265  -0.06015
 Alpha virt. eigenvalues --   -0.05535  -0.05310  -0.05073  -0.04774  -0.04399
 Alpha virt. eigenvalues --   -0.04291  -0.03729  -0.03705  -0.03387  -0.02921
 Alpha virt. eigenvalues --   -0.02605  -0.02419  -0.02292  -0.01936  -0.01833
 Alpha virt. eigenvalues --   -0.01649  -0.01484  -0.01141  -0.00884  -0.00645
 Alpha virt. eigenvalues --   -0.00197   0.00028   0.00305   0.00721   0.01104
 Alpha virt. eigenvalues --    0.01226   0.01333   0.01634   0.01838   0.02094
 Alpha virt. eigenvalues --    0.02328   0.02424   0.02778   0.03028   0.03155
 Alpha virt. eigenvalues --    0.03275   0.03459   0.03741   0.03965   0.04081
 Alpha virt. eigenvalues --    0.04308   0.04718   0.04767   0.04982   0.05050
 Alpha virt. eigenvalues --    0.05246   0.05548   0.05624   0.05868   0.05989
 Alpha virt. eigenvalues --    0.06123   0.06267   0.06562   0.06668   0.06829
 Alpha virt. eigenvalues --    0.06964   0.07247   0.07281   0.07456   0.07667
 Alpha virt. eigenvalues --    0.07774   0.07911   0.08091   0.08288   0.08497
 Alpha virt. eigenvalues --    0.08656   0.08981   0.09065   0.09331   0.09643
 Alpha virt. eigenvalues --    0.09766   0.10004   0.10050   0.10486   0.10616
 Alpha virt. eigenvalues --    0.11001   0.11399   0.11479   0.11731   0.12251
 Alpha virt. eigenvalues --    0.12372   0.12560   0.12855   0.13175   0.13245
 Alpha virt. eigenvalues --    0.13478   0.13760   0.14015   0.14205   0.14448
 Alpha virt. eigenvalues --    0.14724   0.14866   0.15294   0.15451   0.15620
 Alpha virt. eigenvalues --    0.16039   0.16269   0.16405   0.16657   0.16807
 Alpha virt. eigenvalues --    0.17177   0.17455   0.17538   0.17787   0.18207
 Alpha virt. eigenvalues --    0.18484   0.18574   0.18895   0.19169   0.19421
 Alpha virt. eigenvalues --    0.19711   0.19825   0.19988   0.20442   0.20663
 Alpha virt. eigenvalues --    0.20769   0.21195   0.21509   0.21771   0.22074
 Alpha virt. eigenvalues --    0.22105   0.22503   0.22600   0.22970   0.23318
 Alpha virt. eigenvalues --    0.23400   0.23910   0.24182   0.24354   0.25035
 Alpha virt. eigenvalues --    0.25229   0.25405   0.25577   0.25825   0.26268
 Alpha virt. eigenvalues --    0.26583   0.26963   0.27553   0.27742   0.27880
 Alpha virt. eigenvalues --    0.28082   0.28288   0.28514   0.28650   0.29146
 Alpha virt. eigenvalues --    0.29489   0.29689   0.30262   0.30382   0.30503
 Alpha virt. eigenvalues --    0.30880   0.30962   0.31411   0.32138   0.32512
 Alpha virt. eigenvalues --    0.32612   0.32681   0.33127   0.33407   0.33712
 Alpha virt. eigenvalues --    0.34035   0.34394   0.34576   0.35594   0.35867
 Alpha virt. eigenvalues --    0.36841   0.37088   0.37665   0.37733   0.39018
 Alpha virt. eigenvalues --    0.39185   0.39448   0.40059   0.40659   0.41574
 Alpha virt. eigenvalues --    0.42071   0.42584   0.43160   0.43531   0.44364
 Alpha virt. eigenvalues --    0.44635   0.45677   0.47722   0.48288   0.50546
 Alpha virt. eigenvalues --    0.53158   0.53841   0.54426   0.57298   0.57554
 Alpha virt. eigenvalues --    0.57948   0.58311   0.58557   0.59517   0.59980
 Alpha virt. eigenvalues --    0.60731   0.60949   0.61179   0.61493   0.62468
 Alpha virt. eigenvalues --    0.62992   0.63321   0.63476   0.64195   0.64460
 Alpha virt. eigenvalues --    0.65361   0.65639   0.66218   0.66600   0.66912
 Alpha virt. eigenvalues --    0.67450   0.67923   0.68438   0.68838   0.69565
 Alpha virt. eigenvalues --    0.70384   0.70799   0.71075   0.71696   0.72128
 Alpha virt. eigenvalues --    0.72881   0.73445   0.74126   0.74535   0.75026
 Alpha virt. eigenvalues --    0.75249   0.75838   0.76241   0.77080   0.77271
 Alpha virt. eigenvalues --    0.78325   0.78849   0.79328   0.79841   0.81722
 Alpha virt. eigenvalues --    0.82366   0.82872   0.83562   0.84249   0.84630
 Alpha virt. eigenvalues --    0.85116   0.86055   0.86676   0.87319   0.88319
 Alpha virt. eigenvalues --    0.88988   0.89399   0.90183   0.90595   0.91555
 Alpha virt. eigenvalues --    0.92156   0.92533   0.93304   0.93722   0.94380
 Alpha virt. eigenvalues --    0.94993   0.95473   0.96780   0.97506   0.98642
 Alpha virt. eigenvalues --    0.98938   0.99226   1.00179   1.00306   1.01219
 Alpha virt. eigenvalues --    1.01713   1.02767   1.03673   1.05003   1.05604
 Alpha virt. eigenvalues --    1.06462   1.06840   1.07279   1.07653   1.08511
 Alpha virt. eigenvalues --    1.08842   1.09484   1.09711   1.09902   1.11785
 Alpha virt. eigenvalues --    1.12286   1.12688   1.13603   1.14445   1.15150
 Alpha virt. eigenvalues --    1.15946   1.16225   1.17203   1.17440   1.18016
 Alpha virt. eigenvalues --    1.18840   1.19506   1.20471   1.21335   1.21547
 Alpha virt. eigenvalues --    1.22132   1.23080   1.24181   1.24913   1.25527
 Alpha virt. eigenvalues --    1.26675   1.26907   1.27540   1.27662   1.28152
 Alpha virt. eigenvalues --    1.28943   1.29517   1.29910   1.30612   1.30749
 Alpha virt. eigenvalues --    1.31447   1.32340   1.32575   1.32965   1.33959
 Alpha virt. eigenvalues --    1.34829   1.35008   1.35659   1.36075   1.36435
 Alpha virt. eigenvalues --    1.37212   1.38422   1.39034   1.40155   1.41240
 Alpha virt. eigenvalues --    1.41663   1.42557   1.43534   1.44567   1.44816
 Alpha virt. eigenvalues --    1.45207   1.45409   1.46358   1.47710   1.47877
 Alpha virt. eigenvalues --    1.49898   1.50531   1.52283   1.52837   1.54842
 Alpha virt. eigenvalues --    1.55201   1.56549   1.57214   1.57486   1.57831
 Alpha virt. eigenvalues --    1.58055   1.59017   1.59396   1.60353   1.60613
 Alpha virt. eigenvalues --    1.61352   1.61741   1.62512   1.63640   1.63981
 Alpha virt. eigenvalues --    1.64824   1.65584   1.65845   1.66425   1.66942
 Alpha virt. eigenvalues --    1.67396   1.68051   1.69084   1.69678   1.70477
 Alpha virt. eigenvalues --    1.71529   1.72252   1.72528   1.73718   1.74334
 Alpha virt. eigenvalues --    1.74796   1.75099   1.76259   1.76447   1.76581
 Alpha virt. eigenvalues --    1.76833   1.77528   1.78116   1.78372   1.78798
 Alpha virt. eigenvalues --    1.79203   1.80173   1.80892   1.81821   1.82315
 Alpha virt. eigenvalues --    1.82671   1.83073   1.83857   1.84292   1.85262
 Alpha virt. eigenvalues --    1.85696   1.86430   1.87751   1.88653   1.89119
 Alpha virt. eigenvalues --    1.89808   1.90470   1.90704   1.92154   1.92320
 Alpha virt. eigenvalues --    1.92812   1.92921   1.93251   1.94271   1.94963
 Alpha virt. eigenvalues --    1.96806   1.97261   1.98086   1.98508   1.98657
 Alpha virt. eigenvalues --    1.99424   2.00411   2.00685   2.01123   2.01553
 Alpha virt. eigenvalues --    2.02209   2.02631   2.03248   2.03354   2.04079
 Alpha virt. eigenvalues --    2.04423   2.04616   2.04782   2.06143   2.06436
 Alpha virt. eigenvalues --    2.07219   2.07424   2.08985   2.09497   2.09920
 Alpha virt. eigenvalues --    2.10595   2.11025   2.11856   2.13071   2.14078
 Alpha virt. eigenvalues --    2.15155   2.16386   2.16845   2.17813   2.18727
 Alpha virt. eigenvalues --    2.20163   2.22072   2.22435   2.24187   2.25267
 Alpha virt. eigenvalues --    2.26603   2.28027   2.29015   2.30169   2.30974
 Alpha virt. eigenvalues --    2.31451   2.32469   2.33353   2.33563   2.34586
 Alpha virt. eigenvalues --    2.34987   2.36470   2.36894   2.38111   2.39032
 Alpha virt. eigenvalues --    2.39971   2.40271   2.41238   2.42215   2.42964
 Alpha virt. eigenvalues --    2.43249   2.44719   2.45062   2.45669   2.47456
 Alpha virt. eigenvalues --    2.48162   2.48910   2.50025   2.50172   2.50631
 Alpha virt. eigenvalues --    2.51559   2.51785   2.52621   2.54340   2.55097
 Alpha virt. eigenvalues --    2.55680   2.57696   2.57933   2.58882   2.58972
 Alpha virt. eigenvalues --    2.60054   2.60696   2.63042   2.63473   2.64344
 Alpha virt. eigenvalues --    2.64798   2.65285   2.65992   2.67620   2.68394
 Alpha virt. eigenvalues --    2.70372   2.71757   2.72305   2.72505   2.73431
 Alpha virt. eigenvalues --    2.74358   2.75061   2.75204   2.76271   2.77218
 Alpha virt. eigenvalues --    2.78641   2.79204   2.79501   2.83879   2.84983
 Alpha virt. eigenvalues --    2.88559   2.90253   2.92784   2.93777   2.94188
 Alpha virt. eigenvalues --    2.95457   2.96337   3.00679   3.02800   3.05275
 Alpha virt. eigenvalues --    3.07451   3.08054   3.08436   3.11478   3.12716
 Alpha virt. eigenvalues --    3.13362   3.14337   3.15180   3.15914   3.18446
 Alpha virt. eigenvalues --    3.18885   3.19689   3.20786   3.21850   3.22679
 Alpha virt. eigenvalues --    3.26651   3.28546   3.31335   3.32140   3.33786
 Alpha virt. eigenvalues --    3.35659   3.36792   3.37041   3.39647   3.42452
 Alpha virt. eigenvalues --    3.45054   3.51334   3.59799   3.62605   4.13436
 Alpha virt. eigenvalues --    4.17844   4.21595   4.24883   4.27070   4.27298
 Alpha virt. eigenvalues --    4.28242   4.29414   4.31241   4.33245   4.36211
 Alpha virt. eigenvalues --    4.37632   4.39617   4.40058   4.40597   4.43917
 Alpha virt. eigenvalues --    4.45026   4.46447   4.49072   4.53198   4.53355
 Alpha virt. eigenvalues --    4.58497   4.61737   4.63848   4.67514   4.74779
 Alpha virt. eigenvalues --    4.80523   4.83482   4.84230   5.63300   6.12613
 Alpha virt. eigenvalues --    7.06326
          Condensed to atoms (all electrons):
 Mulliken charges:
               1
     1  Cl   0.427318
     2  F   -0.330500
     3  F   -0.267522
     4  F   -0.269380
     5  O   -0.277379
     6  O   -0.123974
     7  O   -0.578452
     8  O   -0.417291
     9  O   -0.338255
    10  O   -0.346710
    11  N   -0.105689
    12  N   -0.090633
    13  C   -0.601987
    14  C   -0.514373
    15  C   -0.718550
    16  C    0.422857
    17  C   -0.389187
    18  C   -0.282461
    19  C    0.432759
    20  C   -0.264544
    21  C   -0.008814
    22  C    0.434031
    23  C    0.451499
    24  C    0.288562
    25  C   -0.094445
    26  C   -0.208475
    27  C   -0.255831
    28  C   -0.006201
    29  C    1.332931
    30  C   -0.158890
    31  C    0.314197
    32  C   -0.415856
    33  H    0.188770
    34  H    0.228629
    35  H    0.160084
    36  H    0.195404
    37  H    0.169628
    38  H    0.222018
    39  H    0.096894
    40  H    0.225487
    41  H    0.181007
    42  H    0.218140
    43  H    0.202742
    44  H    0.217418
    45  H    0.189180
    46  H    0.207847
    47  H    0.201307
    48  H    0.190324
    49  H    0.157835
    50  H    0.140094
    51  H    0.568435
 Sum of Mulliken charges =   1.00000
 Mulliken charges with hydrogens summed into heavy atoms:
               1
     1  Cl   0.427318
     2  F   -0.330500
     3  F   -0.267522
     4  F   -0.269380
     5  O   -0.277379
     6  O   -0.123974
     7  O   -0.578452
     8  O   -0.417291
     9  O    0.230180
    10  O   -0.346710
    11  N   -0.105689
    12  N   -0.090633
    13  C   -0.601987
    14  C   -0.514373
    15  C   -0.718550
    16  C    0.422857
    17  C    0.188296
    18  C    0.304589
    19  C    0.432759
    20  C   -0.167650
    21  C   -0.008814
    22  C    0.659518
    23  C    0.451499
    24  C    0.469569
    25  C   -0.094445
    26  C   -0.208475
    27  C    0.382469
    28  C    0.182979
    29  C    1.332931
    30  C    0.250265
    31  C    0.504521
    32  C   -0.117928
 Electronic spatial extent (au):  <R**2>=          17180.1947
 Charge=              1.0000 electrons
 Dipole moment (field-independent basis, Debye):
    X=             -4.6012    Y=              9.8018    Z=             -1.6967  Tot=             10.9601
 Quadrupole moment (field-independent basis, Debye-Ang):
   XX=           -151.3898   YY=           -131.9579   ZZ=           -182.3488
   XY=            -20.5239   XZ=             -0.5833   YZ=              4.4390
 Traceless Quadrupole moment (field-independent basis, Debye-Ang):
   XX=              3.8424   YY=             23.2743   ZZ=            -27.1166
   XY=            -20.5239   XZ=             -0.5833   YZ=              4.4390
 Octapole moment (field-independent basis, Debye-Ang**2):
  XXX=            -34.6774  YYY=            193.1334  ZZZ=             -1.0578  XYY=            -53.0229
  XXY=             93.5316  XXZ=            -17.2264  XZZ=              4.7059  YZZ=             39.4739
  YYZ=            -32.8806  XYZ=             -0.1515
 Hexadecapole moment (field-independent basis, Debye-Ang**3):
 XXXX=         -12316.6715 YYYY=          -6916.1899 ZZZZ=           -660.2623 XXXY=           -390.1763
 XXXZ=             76.2070 YYYX=            -20.4864 YYYZ=            128.3296 ZZZX=            -15.4332
 ZZZY=             -5.7655 XXYY=          -3231.4686 XXZZ=          -2141.5566 YYZZ=          -1401.3170
 XXYZ=             -1.3540 YYXZ=              0.8505 ZZXY=            -13.9307
 N-N= 3.566667592730D+03 E-N=-1.201798954056D+04  KE= 2.077594828365D+03
 Merz-Kollman atomic radii used.

 **********************************************************************

            Electrostatic Properties Using The SCF Density

 **********************************************************************

       Atomic Center    1 is at  -3.822596 -4.012479 -0.313826
       Atomic Center    2 is at   6.489973 -0.399084  0.414889
       Atomic Center    3 is at   5.860253  0.765614 -1.230558
       Atomic Center    4 is at   5.573006  1.473928  0.756961
       Atomic Center    5 is at  -2.864232  0.209690  0.085372
       Atomic Center    6 is at  -2.890483  3.649464 -0.360403
       Atomic Center    7 is at   0.700029  0.534026 -0.602862
       Atomic Center    8 is at   2.543900 -3.413379  0.962559
       Atomic Center    9 is at  -1.305826  2.073932 -0.373453
       Atomic Center   10 is at  -4.500392 -1.296615  0.560767
       Atomic Center   11 is at   1.568577 -1.514112  0.104796
       Atomic Center   12 is at   2.976594  0.412056 -0.386047
       Atomic Center   13 is at  -3.706082  1.380612  0.084257
       Atomic Center   14 is at   0.259265 -2.146588  0.048968
       Atomic Center   15 is at   4.108509 -0.299227  0.044691
       Atomic Center   16 is at   1.671143 -0.163008 -0.314639
       Atomic Center   17 is at  -4.276531  1.649630  1.453332
       Atomic Center   18 is at  -4.694598  1.340397 -1.052619
       Atomic Center   19 is at  -2.155714 -1.966686  0.186332
       Atomic Center   20 is at  -0.880333 -1.394850  0.340015
       Atomic Center   21 is at   2.725964 -2.286841  0.583905
       Atomic Center   22 is at   3.987584 -1.559781  0.520888
       Atomic Center   23 is at  -2.558143  2.400378 -0.229137
       Atomic Center   24 is at   0.133593 -3.508332 -0.318109
       Atomic Center   25 is at  -3.346429 -1.113956  0.331848
       Atomic Center   26 is at  -2.276442 -3.318214 -0.161990
       Atomic Center   27 is at   3.066539  1.779781 -0.964000
       Atomic Center   28 is at  -1.127284 -4.089350 -0.400885
       Atomic Center   29 is at   5.483520  0.375813 -0.005942
       Atomic Center   30 is at  -1.853698  4.709201 -0.623741
       Atomic Center   31 is at  -1.310338  5.147779  0.689300
       Atomic Center   32 is at  -0.028688  5.455696  0.875708
       Atomic Center   33 is at  -4.794873  2.618511  1.519463
       Atomic Center   34 is at  -5.035578  0.881494  1.713184
       Atomic Center   35 is at  -3.529752  1.608508  2.258825
       Atomic Center   36 is at  -5.234585  2.290144 -1.186804
       Atomic Center   37 is at  -4.242883  1.067686 -2.017659
       Atomic Center   38 is at  -5.472874  0.571741 -0.862466
       Atomic Center   39 is at  -0.801143 -0.349057  0.667607
       Atomic Center   40 is at   4.842816 -2.146084  0.894646
       Atomic Center   41 is at   1.025810 -4.116077 -0.521980
       Atomic Center   42 is at   3.650387  1.779286 -1.902379
       Atomic Center   43 is at   2.053822  2.157479 -1.218777
       Atomic Center   44 is at   3.506103  2.493559 -0.246823
       Atomic Center   45 is at  -1.228539 -5.149791 -0.661732
       Atomic Center   46 is at  -2.510969  5.468203 -1.104791
       Atomic Center   47 is at  -1.115301  4.307373 -1.338727
       Atomic Center   48 is at  -2.053544  5.240170  1.488354
       Atomic Center   49 is at   0.355327  5.817732  1.826797
       Atomic Center   50 is at   0.736106  5.395021  0.110368
       Atomic Center   51 is at  -1.086490  1.014853 -0.289877
    2066 points will be used for fitting atomic charges
 Fitting point charges to electrostatic potential
 The dipole moment will be constrained to the correct value
 Charges from ESP fit, RMS=   0.00168 RRMS=   0.01828:
 ESP charges:
               1
     1  Cl  -0.001411
     2  F   -0.192290
     3  F   -0.210557
     4  F   -0.208104
     5  O   -0.496054
     6  O   -0.324494
     7  O   -0.541697
     8  O   -0.473156
     9  O   -0.334964
    10  O   -0.421589
    11  N   -0.421842
    12  N   -0.012675
    13  C    0.394783
    14  C    0.381309
    15  C    0.024320
    16  C    0.620613
    17  C   -0.436341
    18  C   -0.431376
    19  C    0.091780
    20  C   -0.314054
    21  C    0.713764
    22  C   -0.454076
    23  C    0.592375
    24  C   -0.309798
    25  C    0.611029
    26  C   -0.098621
    27  C   -0.417507
    28  C    0.057568
    29  C    0.699452
    30  C    0.116603
    31  C   -0.125991
    32  C   -0.400321
    33  H    0.134454
    34  H    0.184832
    35  H    0.136659
    36  H    0.130840
    37  H    0.140439
    38  H    0.182706
    39  H    0.169352
    40  H    0.222003
    41  H    0.217181
    42  H    0.175217
    43  H    0.184434
    44  H    0.160931
    45  H    0.120151
    46  H    0.133641
    47  H    0.109061
    48  H    0.166003
    49  H    0.209582
    50  H    0.205035
    51  H    0.340803
 Sum of ESP charges =   1.00000
 ESP charges with hydrogens summed into heavy atoms:
               1
     1  Cl  -0.001411
     2  F   -0.192290
     3  F   -0.210557
     4  F   -0.208104
     5  O   -0.496054
     6  O   -0.324494
     7  O   -0.541697
     8  O   -0.473156
     9  O    0.005839
    10  O   -0.421589
    11  N   -0.421842
    12  N   -0.012675
    13  C    0.394783
    14  C    0.381309
    15  C    0.024320
    16  C    0.620613
    17  C    0.019604
    18  C    0.022609
    19  C    0.091780
    20  C   -0.144702
    21  C    0.713764
    22  C   -0.232073
    23  C    0.592375
    24  C   -0.092617
    25  C    0.611029
    26  C   -0.098621
    27  C    0.103076
    28  C    0.177719
    29  C    0.699452
    30  C    0.359305
    31  C    0.040012
    32  C    0.014296
 Charge=   1.00000 Dipole=    -4.6012     9.8018    -1.6967 Tot=    10.9601
 -----------------------------------------------------------------

              Electrostatic Properties (Atomic Units)

 -----------------------------------------------------------------
    Center     Electric         -------- Electric Field --------
               Potential          X             Y             Z
 -----------------------------------------------------------------
    1 Atom    -64.267321
    2 Atom    -26.397498
    3 Atom    -26.394677
    4 Atom    -26.394486
    5 Atom    -22.136001
    6 Atom    -22.063561
    7 Atom    -22.184997
    8 Atom    -22.205851
    9 Atom    -22.064107
   10 Atom    -22.185557
   11 Atom    -18.146902
   12 Atom    -18.135225
   13 Atom    -14.486422
   14 Atom    -14.554153
   15 Atom    -14.518736
   16 Atom    -14.441973
   17 Atom    -14.601544
   18 Atom    -14.602871
   19 Atom    -14.585903
   20 Atom    -14.591842
   21 Atom    -14.492883
   22 Atom    -14.591389
   23 Atom    -14.395161
   24 Atom    -14.600469
   25 Atom    -14.471557
   26 Atom    -14.549439
   27 Atom    -14.572960
   28 Atom    -14.606604
   29 Atom    -14.347417
   30 Atom    -14.513162
   31 Atom    -14.592503
   32 Atom    -14.605537
   33 Atom     -0.976689
   34 Atom     -0.980321
   35 Atom     -0.977879
   36 Atom     -0.977946
   37 Atom     -0.979697
   38 Atom     -0.981608
   39 Atom     -0.960493
   40 Atom     -0.962913
   41 Atom     -0.984002
   42 Atom     -0.983013
   43 Atom     -0.977471
   44 Atom     -0.981732
   45 Atom     -0.985116
   46 Atom     -0.948779
   47 Atom     -0.940848
   48 Atom     -0.967774
   49 Atom     -0.982444
   50 Atom     -0.976795
   51 Atom     -0.749780
 -----------------------------------------------------------------
 Calling FoFJK, ICntrl=      2127 FMM=F ISym2X=0 I1Cent= 0 IOpClX= 0 NMat=1 NMatS=1 NMatT=0.
 ***** Axes restored to original set *****
 -------------------------------------------------------------------
 Center     Atomic                   Forces (Hartrees/Bohr)
 Number     Number              X              Y              Z
 -------------------------------------------------------------------
      1       17          -0.013651726   -0.016215359   -0.004470762
      2        9          -0.005449222   -0.022031781    0.007285900
      3        9          -0.012527752    0.000938577   -0.021264705
      4        9          -0.016944536    0.013532507    0.012169444
      5        8          -0.009529106   -0.013637034    0.001866095
      6        8           0.004711615   -0.028703038    0.001708213
      7        8           0.002326238   -0.002145615   -0.004714949
      8        8           0.010429391   -0.014682687    0.009756247
      9        8          -0.020601053   -0.034476613    0.007059799
     10        8          -0.012138023   -0.011587966    0.004016979
     11        7           0.006176419    0.014113844   -0.004095472
     12        7          -0.006239170   -0.005883467   -0.000041403
     13        6           0.034681624   -0.002782037   -0.004387956
     14        6           0.005749207    0.002322348    0.002164679
     15        6          -0.013387681   -0.000556651   -0.002385309
     16        6           0.018601757   -0.005508022    0.005931391
     17        6          -0.020933670    0.000526411    0.023927381
     18        6          -0.026797817   -0.004516304   -0.015927924
     19        6           0.000376008   -0.006788431    0.004138523
     20        6           0.002937738   -0.000590208    0.002450566
     21        6          -0.018423303    0.028384401   -0.013509546
     22        6           0.013530434   -0.015470168    0.008074816
     23        6           0.009805251    0.015370280   -0.004570101
     24        6           0.006905833    0.001513533   -0.002281843
     25        6           0.017729034    0.039043286   -0.005172561
     26        6           0.012497190    0.000873667    0.001752912
     27        6          -0.004746802    0.013193777   -0.006759752
     28        6          -0.001907353   -0.003595963   -0.000874422
     29        6           0.021804134    0.005336647    0.001351677
     30        6          -0.013353811    0.005194572   -0.011066120
     31        6          -0.000262095    0.000294360    0.002108082
     32        6           0.008297279    0.002817701    0.007911691
     33        1           0.004608699   -0.002329668   -0.004479325
     34        1           0.008242696    0.005589387   -0.007611227
     35        1           0.002202373    0.001071661   -0.006511895
     36        1           0.005862504   -0.001510692    0.003384664
     37        1           0.003908956    0.002695052    0.005479052
     38        1           0.009863717    0.006561714    0.003194824
     39        1           0.000978184   -0.022963011    0.001540496
     40        1          -0.006821732    0.010983826   -0.005930468
     41        1          -0.010991066    0.006886599    0.001310907
     42        1          -0.001210610   -0.003380628    0.009651725
     43        1           0.011524461   -0.010981514    0.006208785
     44        1           0.000122677   -0.008597857   -0.003399611
     45        1           0.000193845    0.008617243    0.001403369
     46        1           0.011511829   -0.006382690    0.004404409
     47        1          -0.004637931    0.004491142    0.006182747
     48        1           0.004446384    0.001660894   -0.002660504
     49        1          -0.005101473    0.000088305    0.001021626
     50        1          -0.002230636   -0.002999578   -0.006231590
     51        1          -0.012138909    0.056215250   -0.009109553
 -------------------------------------------------------------------
 Cartesian Forces:  Max     0.056215250 RMS     0.011802123

 GradGradGradGradGradGradGradGradGradGradGradGradGradGradGradGradGradGrad
 Berny optimization.
 FormGI is forming the generalized inverse of G from B-inverse, IUseBI=4.
 Internal  Forces:  Max     0.063005065 RMS     0.011351707
 Search for a local minimum.
 Step number   1 out of a maximum of  150
 All quantities printed in internal units (Hartrees-Bohrs-Radians)
 Mixed Optimization -- RFO/linear search
 Second derivative matrix not updated -- first step.
 ITU=  0
     Eigenvalues ---    0.00230   0.00293   0.00335   0.00534   0.00669
     Eigenvalues ---    0.00672   0.00936   0.00962   0.00984   0.01079
     Eigenvalues ---    0.01096   0.01134   0.01139   0.01180   0.01193
     Eigenvalues ---    0.01293   0.01307   0.01379   0.01396   0.01460
     Eigenvalues ---    0.01691   0.01777   0.01832   0.01978   0.01999
     Eigenvalues ---    0.02037   0.02055   0.02058   0.02088   0.02116
     Eigenvalues ---    0.02137   0.02225   0.02986   0.02998   0.02999
     Eigenvalues ---    0.03025   0.03950   0.05244   0.05260   0.05712
     Eigenvalues ---    0.05718   0.05828   0.06116   0.06942   0.07012
     Eigenvalues ---    0.07257   0.09524   0.09777   0.09899   0.11590
     Eigenvalues ---    0.13685   0.15990   0.15995   0.15997   0.15999
     Eigenvalues ---    0.15999   0.16000   0.16000   0.16000   0.16000
     Eigenvalues ---    0.16000   0.16000   0.16000   0.16000   0.16000
     Eigenvalues ---    0.16000   0.16000   0.16000   0.16337   0.17952
     Eigenvalues ---    0.22002   0.22063   0.22369   0.23436   0.23459
     Eigenvalues ---    0.24582   0.24948   0.24959   0.24966   0.24993
     Eigenvalues ---    0.24995   0.24996   0.24997   0.24998   0.24998
     Eigenvalues ---    0.24999   0.25000   0.25000   0.25000   0.25000
     Eigenvalues ---    0.25000   0.25000   0.25000   0.25000   0.25000
     Eigenvalues ---    0.26244   0.29184   0.31617   0.31646   0.31780
     Eigenvalues ---    0.32250   0.32523   0.32549   0.32571   0.33115
     Eigenvalues ---    0.33289   0.33331   0.33439   0.33593   0.33601
     Eigenvalues ---    0.33696   0.33720   0.33762   0.33773   0.33820
     Eigenvalues ---    0.33835   0.34046   0.34223   0.34694   0.35079
     Eigenvalues ---    0.35423   0.35528   0.35555   0.35691   0.36272
     Eigenvalues ---    0.37579   0.39293   0.40290   0.40738   0.40969
     Eigenvalues ---    0.41518   0.41531   0.44019   0.44098   0.45070
     Eigenvalues ---    0.45794   0.46673   0.52943   0.57181   0.57376
     Eigenvalues ---    0.57633   0.59215   0.66589   0.67418   0.91240
     Eigenvalues ---    1.03658   1.09721
 RFO step:  Lambda=-9.76149957D-02 EMin= 2.30000000D-03
 Linear search not attempted -- first point.
 Maximum step size (   0.300) exceeded in Quadratic search.
    -- Step size scaled by   0.638
 Iteration  1 RMS(Cart)=  0.32041823 RMS(Int)=  0.01448100
 Iteration  2 RMS(Cart)=  0.31002830 RMS(Int)=  0.00585019
 Iteration  3 RMS(Cart)=  0.01688856 RMS(Int)=  0.00015291
 Iteration  4 RMS(Cart)=  0.00004432 RMS(Int)=  0.00015216
 Iteration  5 RMS(Cart)=  0.00000001 RMS(Int)=  0.00015216
 Variable       Old X    -DE/DX   Delta X   Delta X   Delta X     New X
                                 (Linear)    (Quad)   (Total)
    R1        3.21567   0.01942   0.00000   0.02725   0.02725   3.24292
    R2        2.52864   0.01095   0.00000   0.01036   0.01036   2.53901
    R3        2.53079   0.01619   0.00000   0.01538   0.01538   2.54617
    R4        2.53243   0.01689   0.00000   0.01609   0.01609   2.54852
    R5        2.72525   0.01411   0.00000   0.01835   0.01835   2.74360
    R6        2.70257   0.00309   0.00000   0.00388   0.00388   2.70645
    R7        2.45511  -0.02384   0.00000  -0.01970  -0.01970   2.43542
    R8        2.84547   0.00243   0.00000   0.00373   0.00373   2.84920
    R9        2.32366  -0.00195   0.00000  -0.00123  -0.00123   2.32243
   R10        2.27209   0.01525   0.00000   0.00858   0.00858   2.28066
   R11        2.46078  -0.03671   0.00000  -0.03066  -0.03066   2.43011
   R12        2.04993  -0.05804   0.00000  -0.08192  -0.08192   1.96801
   R13        2.24981   0.01432   0.00000   0.00764   0.00764   2.25745
   R14        2.74982  -0.00238   0.00000  -0.00320  -0.00320   2.74662
   R15        2.68043  -0.01418   0.00000  -0.01721  -0.01722   2.66321
   R16        2.78130  -0.00578   0.00000  -0.00739  -0.00740   2.77390
   R17        2.65417  -0.02097   0.00000  -0.02511  -0.02510   2.62907
   R18        2.69907  -0.02007   0.00000  -0.02577  -0.02577   2.67330
   R19        2.81105  -0.01085   0.00000  -0.01592  -0.01592   2.79514
   R20        2.84851   0.00793   0.00000   0.01222   0.01222   2.86073
   R21        2.84795   0.00753   0.00000   0.01160   0.01160   2.85955
   R22        2.96145  -0.00484   0.00000  -0.00857  -0.00857   2.95288
   R23        2.63785  -0.00156   0.00000  -0.00192  -0.00190   2.63594
   R24        2.67574  -0.01048   0.00000  -0.01337  -0.01339   2.66235
   R25        2.55664  -0.01244   0.00000  -0.01239  -0.01238   2.54426
   R26        2.89622  -0.01273   0.00000  -0.02085  -0.02085   2.87536
   R27        2.08023  -0.00449   0.00000  -0.00660  -0.00660   2.07362
   R28        2.09896  -0.01128   0.00000  -0.01701  -0.01701   2.08195
   R29        2.07714  -0.00332   0.00000  -0.00486  -0.00486   2.07228
   R30        2.08008  -0.00459   0.00000  -0.00675  -0.00675   2.07333
   R31        2.07846  -0.00387   0.00000  -0.00568  -0.00568   2.07278
   R32        2.09811  -0.01091   0.00000  -0.01644  -0.01644   2.08167
   R33        2.65721   0.00326   0.00000   0.00438   0.00442   2.66162
   R34        2.78125   0.01990   0.00000   0.02802   0.02802   2.80928
   R35        2.64732   0.01376   0.00000   0.01657   0.01659   2.66392
   R36        2.07635  -0.02133   0.00000  -0.03121  -0.03121   2.04514
   R37        2.75425  -0.00938   0.00000  -0.01203  -0.01203   2.74222
   R38        2.08288  -0.01315   0.00000  -0.01941  -0.01941   2.06347
   R39        2.62818  -0.00529   0.00000  -0.00645  -0.00649   2.62169
   R40        2.07609  -0.01298   0.00000  -0.01899  -0.01899   2.05711
   R41        2.65390  -0.00652   0.00000  -0.00746  -0.00748   2.64641
   R42        2.08850  -0.00883   0.00000  -0.01314  -0.01314   2.07536
   R43        2.09850  -0.01567   0.00000  -0.02362  -0.02362   2.07488
   R44        2.08474  -0.00772   0.00000  -0.01143  -0.01143   2.07330
   R45        2.07253  -0.00868   0.00000  -0.01264  -0.01264   2.05989
   R46        2.81034   0.00433   0.00000   0.00634   0.00634   2.81668
   R47        2.10388  -0.01305   0.00000  -0.01981  -0.01981   2.08407
   R48        2.08547  -0.00874   0.00000  -0.01295  -0.01295   2.07252
   R49        2.51567   0.00129   0.00000   0.00119   0.00119   2.51686
   R50        2.06956  -0.00482   0.00000  -0.00699  -0.00699   2.06257
   R51        2.05547  -0.00088   0.00000  -0.00125  -0.00125   2.05422
   R52        2.04784   0.00300   0.00000   0.00422   0.00422   2.05205
    A1        2.15890  -0.06228   0.00000  -0.11426  -0.11426   2.04464
    A2        2.11552  -0.00033   0.00000  -0.00060  -0.00060   2.11492
    A3        2.01602   0.00054   0.00000   0.00134   0.00134   2.01737
    A4        2.05753   0.00833   0.00000   0.01464   0.01464   2.07217
    A5        2.08501  -0.00794   0.00000  -0.01522  -0.01521   2.06980
    A6        2.14064  -0.00039   0.00000   0.00057   0.00055   2.14119
    A7        2.11457   0.00176   0.00000   0.00149   0.00152   2.11608
    A8        2.13655  -0.00905   0.00000  -0.01574  -0.01575   2.12080
    A9        2.03184   0.00730   0.00000   0.01426   0.01425   2.04609
   A10        1.94456  -0.00958   0.00000  -0.02178  -0.02195   1.92260
   A11        1.94100  -0.00448   0.00000  -0.00864  -0.00853   1.93247
   A12        1.67186   0.02686   0.00000   0.09215   0.09250   1.76437
   A13        2.02828   0.00750   0.00000  -0.00127  -0.00205   2.02623
   A14        1.92060  -0.00598   0.00000  -0.01597  -0.01630   1.90429
   A15        1.92514  -0.01167   0.00000  -0.02955  -0.02995   1.89519
   A16        2.08576   0.01203   0.00000   0.02300   0.02297   2.10874
   A17        2.10345  -0.00790   0.00000  -0.01358  -0.01360   2.08984
   A18        2.09384  -0.00410   0.00000  -0.00929  -0.00927   2.08457
   A19        2.10338   0.00875   0.00000   0.01526   0.01530   2.11868
   A20        2.08271  -0.00872   0.00000  -0.01561  -0.01563   2.06708
   A21        2.09694  -0.00002   0.00000   0.00035   0.00033   2.09727
   A22        2.15576   0.00158   0.00000   0.00329   0.00325   2.15900
   A23        2.07360   0.00000   0.00000   0.00040   0.00036   2.07396
   A24        2.05374  -0.00155   0.00000  -0.00349  -0.00353   2.05021
   A25        1.97126  -0.00443   0.00000  -0.01153  -0.01162   1.95963
   A26        1.92589  -0.00496   0.00000  -0.01129  -0.01134   1.91455
   A27        1.98427  -0.00573   0.00000  -0.01464  -0.01474   1.96954
   A28        1.84714   0.00554   0.00000   0.01454   0.01450   1.86164
   A29        1.88474   0.00477   0.00000   0.01016   0.01005   1.89479
   A30        1.84105   0.00641   0.00000   0.01687   0.01682   1.85787
   A31        1.97220  -0.00455   0.00000  -0.01183  -0.01192   1.96028
   A32        1.98135  -0.00565   0.00000  -0.01438  -0.01447   1.96687
   A33        1.92736  -0.00516   0.00000  -0.01183  -0.01189   1.91548
   A34        1.88436   0.00482   0.00000   0.01036   0.01025   1.89461
   A35        1.84871   0.00564   0.00000   0.01465   0.01461   1.86332
   A36        1.84056   0.00650   0.00000   0.01714   0.01708   1.85764
   A37        2.07988   0.01962   0.00000   0.03549   0.03539   2.11527
   A38        2.09172  -0.01026   0.00000  -0.01708  -0.01707   2.07465
   A39        2.11044  -0.00919   0.00000  -0.01742  -0.01754   2.09290
   A40        2.09288   0.00831   0.00000   0.01703   0.01699   2.10987
   A41        2.11286  -0.00643   0.00000  -0.01397  -0.01415   2.09871
   A42        2.07719  -0.00176   0.00000  -0.00241  -0.00259   2.07460
   A43        2.06618   0.01452   0.00000   0.02548   0.02547   2.09165
   A44        2.22949  -0.01601   0.00000  -0.03054  -0.03055   2.19895
   A45        1.98746   0.00150   0.00000   0.00514   0.00512   1.99259
   A46        2.16202  -0.01008   0.00000  -0.01898  -0.01897   2.14305
   A47        2.14793  -0.00060   0.00000  -0.00446  -0.00447   2.14346
   A48        1.97321   0.01067   0.00000   0.02345   0.02344   1.99664
   A49        2.06671  -0.00915   0.00000  -0.01680  -0.01681   2.04990
   A50        2.04705  -0.01593   0.00000  -0.02924  -0.02925   2.01780
   A51        2.16940   0.02507   0.00000   0.04599   0.04599   2.21539
   A52        2.09171   0.00316   0.00000   0.00367   0.00364   2.09535
   A53        2.10371  -0.00084   0.00000  -0.00001  -0.00000   2.10371
   A54        2.08762  -0.00232   0.00000  -0.00368  -0.00367   2.08395
   A55        2.09664  -0.02096   0.00000  -0.03864  -0.03882   2.05782
   A56        1.81979   0.06301   0.00000   0.11541   0.11524   1.93503
   A57        2.36641  -0.04219   0.00000  -0.07759  -0.07773   2.28868
   A58        2.08760   0.01640   0.00000   0.02965   0.02963   2.11723
   A59        2.09935  -0.01440   0.00000  -0.02688  -0.02689   2.07245
   A60        2.09615  -0.00201   0.00000  -0.00281  -0.00278   2.09337
   A61        1.94058  -0.00367   0.00000  -0.00955  -0.00963   1.93095
   A62        1.92487  -0.00730   0.00000  -0.01692  -0.01698   1.90790
   A63        1.94594  -0.00385   0.00000  -0.01025  -0.01033   1.93561
   A64        1.86202   0.00693   0.00000   0.01854   0.01848   1.88050
   A65        1.91960   0.00216   0.00000   0.00328   0.00318   1.92278
   A66        1.86759   0.00656   0.00000   0.01708   0.01701   1.88461
   A67        2.09708   0.00495   0.00000   0.00872   0.00868   2.10576
   A68        2.09647  -0.00186   0.00000  -0.00284  -0.00283   2.09364
   A69        2.08959  -0.00308   0.00000  -0.00584  -0.00583   2.08377
   A70        1.81786   0.02614   0.00000   0.04900   0.04843   1.86628
   A71        1.81859   0.02568   0.00000   0.04851   0.04797   1.86656
   A72        1.99254  -0.02386   0.00000  -0.04237  -0.04297   1.94957
   A73        1.83721   0.02025   0.00000   0.03475   0.03406   1.87127
   A74        1.99411  -0.01975   0.00000  -0.03702  -0.03771   1.95641
   A75        1.98451  -0.01891   0.00000  -0.03530  -0.03596   1.94855
   A76        1.88043   0.00520   0.00000   0.01177   0.01175   1.89219
   A77        1.72023   0.00359   0.00000   0.01561   0.01557   1.73579
   A78        1.89415  -0.00240   0.00000  -0.00573  -0.00569   1.88846
   A79        1.97811  -0.00138   0.00000  -0.00241  -0.00255   1.97555
   A80        2.02076  -0.00347   0.00000  -0.01121  -0.01124   2.00953
   A81        1.94261  -0.00017   0.00000  -0.00312  -0.00318   1.93943
   A82        2.14552   0.00061   0.00000   0.00121   0.00121   2.14672
   A83        2.00548   0.00171   0.00000   0.00437   0.00437   2.00985
   A84        2.13137  -0.00234   0.00000  -0.00567  -0.00567   2.12570
   A85        2.14043  -0.00247   0.00000  -0.00611  -0.00611   2.13432
   A86        2.17440  -0.00550   0.00000  -0.01362  -0.01362   2.16078
   A87        1.96819   0.00797   0.00000   0.01972   0.01972   1.98791
    D1        1.14275   0.00393   0.00000   0.01718   0.01734   1.16009
    D2       -1.15038   0.00574   0.00000   0.04520   0.04539  -1.10498
    D3        3.13577   0.00730   0.00000   0.03698   0.03663  -3.11079
    D4       -0.00849   0.00967   0.00000   0.05484   0.05536   0.04687
    D5        3.10898   0.00417   0.00000   0.02504   0.02452   3.13350
    D6       -0.03810  -0.00066   0.00000  -0.00396  -0.00384  -0.04194
    D7        3.11142   0.00030   0.00000   0.00214   0.00202   3.11345
    D8       -1.50073   0.00150   0.00000   0.00648   0.00656  -1.49417
[...]
 0.00000067,-0.00000674,0.00001026,0.00000311,0.00001317,0.00000337,-0.
 00000931,0.00001911,0.00000606,0.00000586,-0.00000131,0.00000077,-0.00
 000022,-0.00077345,0.00015971,0.00000324,-0.00067613,0.00122486,-0.000
 97817,-0.06635589,0.07937105,-0.00000486,-0.00000433,-0.00000153,0.000
 00583,0.00000634,0.00000003,0.00000778,0.00000842,-0.00000459,0.000005
 26,0.00001899,0.00000598,-0.00004394,-0.00016929,0.00006210,-0.0001043
 1,-0.00033048,0.00094611,0.00010728,-0.00005069,0.00003023,0.00001268,
 -0.00000408,0.00000454,0.00018168,-0.00002613,0.00008670,-0.00002876,-
 0.00003517,0.00001930,0.00002982,-0.00001751,0.00001043,0.00004805,0.0
 0002832,0.00000047,0.00002182,0.00005163,-0.00008152,-0.00001143,-0.00
 000918,-0.00000387,0.00000436,0.00000475,0.00000207,-0.00010599,0.0000
 2222,-0.00003104,0.00001737,-0.00008009,-0.00003430,-0.00000402,-0.000
 05808,0.00004176,0.00000619,-0.00002388,-0.00000389,-0.00000381,-0.000
 00193,0.00000334,-0.00003437,0.00000969,-0.00001090,0.00001077,0.00000
 407,0.00000088,-0.00030824,0.00026820,-0.00006046,0.00000156,0.0000018
 0,-0.00000166,0.00003945,0.00014134,-0.00002984,0.00001637,0.00001471,
 0.00000630,-0.00000165,-0.00003080,-0.00001222,0.00000119,-0.00000153,
 -0.00000159,-0.00002241,-0.00003691,-0.00000113,0.01320223,-0.00914483
 ,-0.01777247,0.10999051,-0.09135707,-0.21188387,-0.00272535,0.00034699
 ,0.00595894,-0.00002118,-0.00000898,0.00000289,-0.00001157,0.00002105,
 0.00002708,0.00000179,0.00000210,0.00001375,0.00001693,-0.00000136,-0.
 00000756,0.00000310,0.00001709,0.00000580,-0.00001428,0.00000112,-0.00
 001071,-0.00000554,0.00000225,-0.00000447,-0.00000035,0.00000043,-0.00
 000029,-0.00000064,-0.00000028,-0.00000034,0.00000344,-0.00000098,0.00
 000152,-0.00001124,-0.00000287,-0.00000139,0.00000003,-0.00000421,0.00
 001167,0.00000066,0.00000018,-0.00000055,0.00011722,0.00026105,0.00055
 397,-0.00311407,-0.00150400,-0.00205714,-0.11576673,0.10223035,0.22173
 235,-0.00000119,-0.00000060,-0.00000057,0.00000158,-0.00002215,-0.0000
 0323,-0.00000427,-0.00001276,-0.00001923,-0.00000673,-0.00006653,-0.00
 003648,-0.00000554,-0.00008587,0.00003432,0.00005797,-0.00078641,-0.00
 016758,-0.00004177,0.00005055,-0.00001854,-0.00000986,-0.00000442,-0.0
 0000041,0.00048895,-0.00021167,-0.00014005,-0.00001270,-0.00001226,0.0
 0001299,-0.00001878,0.00001890,-0.00001028,-0.00005278,-0.00002416,-0.
 00001554,0.00001946,0.00003524,-0.00001881,0.00000065,0.00000073,0.000
 00110,0.00001259,0.00000004,-0.00000258,0.00009422,-0.00003561,0.00002
 526,-0.00002581,-0.00003076,-0.00003080,-0.00000675,-0.00002402,0.0000
 3780,-0.00000210,-0.00000896,0.00000069,-0.00000134,-0.00000690,-0.000
 00125,0.00002962,0.00000443,0.00000579,-0.00001869,-0.00000385,-0.0000
 0564,-0.00065959,0.00078218,0.00010353,-0.00000025,-0.00000100,-0.0000
 0106,0.00002269,0.00005034,-0.00001936,0.00000476,0.00000330,0.0000029
 6,0.00000919,0.00003705,0.00005482,0.00000066,0.,-0.00000122,0.0000136
 8,0.00010658,0.00005899,-0.00437179,0.00192376,0.00049787,-0.01111263,
 -0.01171838,-0.02569372,-0.12802390,-0.04855694,-0.11152016,-0.0000015
 5,-0.00000038,-0.00001555,0.00000037,0.00000639,0.00002038,0.00000654,
 -0.00001616,0.00000542,0.00001594,0.00000256,-0.00000215,0.00000261,0.
 00000570,0.00000311,-0.00000609,-0.00000265,-0.00000940,-0.00000086,-0
 .00000045,-0.00000301,0.00000076,0.00000284,0.00000038,0.00000041,0.00
 000041,0.00000058,-0.00000364,0.00000974,0.00000356,0.00001343,-0.0000
 4898,-0.00004439,0.00004821,0.00001115,0.00002361,0.00000036,-0.000000
 17,-0.00000019,-0.00037931,-0.00035732,-0.00091701,0.00001010,-0.00009
 202,0.00001992,0.00064068,-0.00047277,0.00017436,0.13275656,0.00002260
 ,0.00001280,0.00000602,-0.00002955,0.00002019,-0.00000032,-0.00002854,
 0.00000266,0.00004060,-0.00002171,0.00005441,0.00003845,0.00003518,0.0
 0015927,-0.00001903,0.00264967,0.00291576,0.00162491,-0.00000759,0.000
 04248,0.00005966,0.00000356,0.00004444,-0.00000679,-0.00053497,-0.0001
 2167,0.00014400,0.00003956,0.00002574,-0.00000842,-0.00000748,0.000036
 98,-0.00000204,-0.00001455,0.00005190,0.00001238,-0.00010494,-0.000073
 27,-0.00018586,-0.00001413,0.00000106,0.00000084,0.00004335,-0.0000351
 6,0.00002459,-0.00000084,-0.00007505,-0.00002664,0.00001054,0.00006906
 ,-0.00000613,-0.00002710,0.00003907,-0.00003460,0.00000118,0.00002580,
 0.00001033,0.00000587,-0.00001487,-0.00000784,-0.00000176,-0.00006044,
 0.00000527,0.00000989,0.00002365,0.00000065,0.00125704,-0.00079389,0.0
 0014962,-0.00000252,-0.00000698,-0.00000312,-0.00006458,-0.00010563,0.
 00001205,-0.00003816,-0.00001944,-0.00000884,-0.00001023,-0.00010579,-
 0.00009368,0.00001091,0.00000289,0.00000252,0.00007627,-0.00008125,-0.
 00008163,-0.00149473,0.01002244,-0.00568128,0.00449044,0.00503383,0.00
 137824,-0.05199410,-0.07962185,-0.08933288,0.00000255,0.00000254,0.000
 00779,0.00001157,-0.00001452,-0.00001601,-0.00000551,-0.00000790,0.000
 01058,-0.00001789,0.00000711,-0.00001065,0.00000004,0.00000185,0.00000
 801,0.00000398,0.00000810,0.00001192,-0.00000273,-0.00000346,-0.000004
 36,0.00000504,-0.00000290,-0.00000220,-0.00000088,-0.00000069,-0.00000
 260,-0.00000196,0.00002446,0.00001570,-0.00000464,0.00004175,0.0000264
 4,0.00001131,0.00001566,-0.00001826,0.00000012,0.00000073,-0.00000039,
 -0.00121666,-0.00128240,-0.00104636,0.00004376,0.00009961,0.00021944,-
 0.00066797,-0.00571816,0.00321526,0.05350766,0.06894319,-0.00000519,-0
 .00000367,-0.00000122,0.00000506,0.00001495,0.00000028,0.00001187,0.00
 001259,0.00000050,0.00000917,0.00004282,0.00001830,-0.00002084,-0.0001
 0247,0.00002648,-0.00141588,-0.00111583,-0.00054270,0.00010200,-0.0000
 8015,0.00003450,0.00001268,-0.00000635,0.00000412,0.00001310,0.0000291
 8,0.00005632,-0.00001689,-0.00002276,0.00000676,0.00003244,-0.00003168
 ,0.00001390,0.00007553,0.00002801,0.00001345,0.00001759,0.00005366,0.0
 0004966,-0.00000358,-0.00000621,-0.00000046,-0.00000903,0.00000318,0.0
 0000198,-0.00013321,0.00004855,-0.00004275,-0.00000811,-0.00002961,-0.
 00001320,0.00000717,-0.00002189,0.00001904,0.00000450,-0.00001422,-0.0
 0000462,-0.00000350,0.00000086,0.00000309,-0.00003768,0.00001088,-0.00
 001090,0.00001774,0.00000146,0.00000352,-0.00021778,0.00027187,-0.0002
 3373,0.00000108,0.00000295,-0.00000036,0.00002099,0.00008431,-0.000009
 31,0.00001285,0.00001022,0.00000317,-0.00000887,-0.00004850,-0.0000531
 4,-0.00000057,-0.00000112,-0.00000095,-0.00002932,-0.00007447,-0.00001
 895,0.00152877,-0.00454946,0.00350508,0.00172352,-0.00062528,0.0039793
 2,-0.11553464,-0.08856758,-0.23789595,-0.00000056,-0.00000251,-0.00000
 098,-0.00000204,0.00000749,0.00001308,0.00000228,0.00000006,0.00000362
 ,0.00001054,-0.00000358,0.00000334,0.00000107,0.00000136,-0.00000147,-
 0.00000348,-0.00000242,-0.00000598,-0.00000340,0.00000153,-0.00000266,
 -0.00000131,-0.00000107,0.00000018,-0.00000041,-0.00000023,0.00000008,
 0.00000636,-0.00000998,0.00000244,-0.00002087,0.00004349,0.00004119,-0
 .00003952,-0.00001203,-0.00001515,0.00000029,-0.00000004,-0.00000017,0
 .00055327,0.00057605,0.00071801,0.00019903,0.00003607,0.00035155,0.000
 24868,0.00327756,-0.00056827,0.12431354,0.09727572,0.24157946,-0.00000
 201,0.00000158,-0.00000011,0.00001596,-0.00003544,0.00001401,-0.000000
 63,-0.00003706,0.00001564,0.00000574,-0.00007980,-0.00001534,0.0000520
 7,0.00018961,-0.00006064,0.00027787,-0.00009569,-0.00028585,-0.0003213
 6,0.00016379,-0.00005424,-0.00003807,-0.00003490,0.00000245,0.00046225
 ,0.00023975,-0.00003173,0.00002817,0.00005379,-0.00002218,-0.00008661,
 0.00001658,-0.00001643,-0.00010385,-0.00020375,0.00001657,0.00003669,-
 0.00011411,0.00003844,0.00003858,0.00001894,0.00000786,-0.00008365,0.0
 0002278,-0.00004867,0.00040089,-0.00004455,0.00008506,0.00000593,0.000
 06657,0.00002443,0.00000583,0.00004714,-0.00004679,-0.00001846,0.00003
 063,0.00000474,0.00000518,-0.00000578,-0.00000849,0.00010286,0.0000319
 8,0.00000767,-0.00003546,-0.00005093,0.00001381,-0.00074185,0.00015458
 ,0.00019983,-0.00000555,-0.00000364,0.00000505,-0.00002153,-0.00019945
 ,0.00003371,-0.00000937,-0.00001711,-0.00000490,-0.00002156,0.00022095
 ,0.00011274,-0.00000675,0.00000360,0.00000133,-0.00000194,0.00015976,-
 0.00001210,0.00084178,0.00021010,0.00225418,-0.01355912,0.01337042,0.0
 2539419,-0.13538773,0.05781140,0.10798149,0.00001089,0.00000764,0.0000
 1107,0.00000758,-0.00001341,-0.00002360,-0.00000697,0.00000604,-0.0000
 0071,-0.00001100,-0.00000083,0.00000563,-0.00000325,-0.00001045,-0.000
 00329,0.00001403,-0.00000279,0.00001251,0.00000932,-0.00000924,0.00000
 768,-0.00000380,-0.00000224,0.00000145,0.00000202,0.00000302,0.0000022
 8,-0.00002337,-0.00000203,-0.00000919,0.00005747,0.00001509,0.00000648
 ,-0.00000729,0.00004176,-0.00012566,-0.00000134,-0.00000020,0.00000058
 ,0.00032146,-0.00003643,-0.00006199,-0.00060872,-0.00042789,-0.0013660
 1,-0.00452543,0.00026646,-0.00155700,0.01056992,-0.00587890,-0.0113936
 4,0.14218851,0.00002527,0.00001184,0.00000761,-0.00004095,0.00000002,-
 0.00001006,-0.00004478,-0.00000545,0.00001751,-0.00003696,-0.00001336,
 -0.00000885,0.00003570,-0.00000770,0.00001665,-0.00159415,-0.00185146,
 -0.00036740,-0.00015346,0.00026626,-0.00001174,-0.00000320,0.00007939,
 -0.00002483,0.00072374,-0.00001866,0.00006496,0.00003533,0.00001779,-0
 .00000631,-0.00004540,0.00014474,-0.00005529,-0.00016932,0.00007914,-0
 .00003491,0.00007647,-0.00002872,-0.00004481,-0.00004516,-0.00000923,0
 .00000387,0.00011077,-0.00006359,0.00004984,0.00021611,-0.00024312,0.0
 0008333,0.00000709,0.00002465,-0.00000905,-0.00000991,0.00000183,-0.00
 000276,0.00000306,0.00000767,0.00000341,0.00000322,-0.00001358,-0.0000
 0678,0.00003603,-0.00009847,0.00003600,-0.00001382,0.00004998,-0.00002
 061,-0.00127535,0.00087918,-0.00001360,0.00000317,-0.00000883,-0.00000
 894,-0.00003363,-0.00005686,0.00001528,-0.00003563,-0.00001377,-0.0000
 0636,-0.00002053,-0.00013233,-0.00001198,0.00001530,0.00000208,0.00000
 148,0.00011473,0.00002565,-0.00000393,0.00028138,-0.00605610,0.0032187
 4,0.00028597,0.00583447,-0.00212180,0.05938166,-0.08606078,-0.09133961
 ,-0.00001541,-0.00000640,-0.00000719,0.00000268,0.00000340,0.00000569,
 0.00000563,-0.00001425,0.00001509,0.00001157,-0.00000716,0.00000328,-0
 .00000154,-0.00000043,0.00000177,0.00000218,-0.00000618,-0.00000046,-0
 .00000506,-0.00000515,0.00000647,0.00000778,0.00000318,-0.00000033,-0.
 00000100,-0.00000289,-0.00000218,-0.00003202,0.00008106,0.00001148,0.0
 0005375,-0.00005121,-0.00010185,0.00013219,0.00004621,0.00008656,0.000
 00152,0.00000052,-0.00000041,0.00065393,0.00045867,0.00036556,0.000365
 92,0.00031443,0.00011215,0.00066221,0.00957561,-0.00387899,0.00600416,
 0.00047029,-0.00658927,-0.06561423,0.07647633,-0.00002815,-0.00001195,
 -0.00000800,0.00005101,-0.00003297,0.00002000,0.00003485,-0.00002300,-
 0.00001026,0.00003102,-0.00006561,-0.00001832,-0.00004262,0.00007252,-
 0.00001166,0.00055248,0.00113381,0.00015287,0.00000844,-0.00017504,-0.
 00005689,-0.00002314,-0.00010385,0.00002864,-0.00081886,-0.00006922,-0
 .00007839,-0.00004440,0.00001151,0.00000929,-0.00000466,-0.00013207,0.
 00004826,0.00006326,-0.00019409,0.00000914,-0.00001237,-0.00002086,0.0
 0002327,0.00006970,0.00002361,0.00000116,-0.00013928,0.00008657,-0.000
 08539,-0.00000496,0.00023873,-0.00003562,0.00000220,0.00000369,0.00000
 115,0.00000310,0.00001349,-0.00000126,-0.00001774,0.00000728,0.0000008
 7,0.00000008,0.00001347,0.00000254,0.00003143,0.00012313,-0.00003299,-
 0.00002128,-0.00007779,0.00002784,0.00103944,-0.00071103,-0.00005291,-
 0.00000651,0.00000857,0.00001006,0.00005136,-0.00003648,-0.00001467,0.
 00003320,0.00000371,0.00000218,0.00007079,0.00028635,0.00019178,-0.000
 02104,-0.00000123,0.00000038,-0.00010014,0.00012242,0.00001265,-0.0017
 3198,0.00364591,0.00027718,-0.00253825,-0.00132303,0.00342165,0.112823
 95,-0.09170793,-0.21586684,-0.00000585,0.00000383,0.00000080,0.0000001
 7,-0.00000252,-0.00000241,-0.00000009,-0.00000588,-0.00000911,-0.00001
 185,0.00000363,-0.00000282,0.00000185,-0.00000405,0.00000144,0.0000020
 6,-0.00000046,-0.00000012,0.00001340,0.00000489,-0.00000615,-0.0000089
 5,-0.00000106,0.00000068,0.00000228,0.00000465,0.00000341,0.00000766,-
 0.00006632,-0.00003564,-0.00001274,-0.00002357,0.00003707,-0.00012876,
 -0.00000266,-0.00013644,-0.00000221,-0.00000058,0.00000029,-0.00042879
 ,-0.00024547,-0.00012033,0.00019210,0.00005971,0.00015084,-0.00124597,
 -0.00380542,0.00308436,0.01331545,-0.00763678,-0.01102361,-0.12110795,
 0.10060144,0.22002159,-0.00047771,-0.00012696,-0.00010325,0.00071129,0
 .00002364,0.00020507,0.00044123,0.00014042,-0.00016084,0.00033174,0.00
 034631,0.00019404,0.00207855,0.00854871,-0.00251444,-0.00058315,-0.005
 71406,0.00384839,0.01431699,-0.01151744,0.00413585,-0.00000986,-0.0021
 2794,0.00073098,-0.05860041,0.08044168,-0.00163385,0.00168338,0.003276
 96,-0.00097008,0.00200019,-0.00640106,0.00268844,0.00694368,-0.0000311
 0,0.00119250,-0.00212783,-0.00024477,0.00012333,0.00258027,0.00119003,
 -0.00001236,-0.00133498,0.00190174,-0.00069873,-0.01235068,0.01006237,
 -0.00823842,0.00077195,0.00097323,0.00043562,0.00011534,0.00040681,-0.
 00058857,-0.00090503,0.00113951,0.00023950,0.00017467,0.00060194,-0.00
 011350,-0.00168594,0.00250817,-0.00117315,0.00040466,-0.00084654,0.000
 44183,-0.02650980,0.04131201,-0.00111021,-0.00029051,0.00033574,0.0004
 3377,0.00049544,-0.01154543,0.00108521,0.00015786,-0.00077901,-0.00036
 075,0.00002347,-0.00111275,0.00001427,-0.00073510,0.00003171,0.0001364
 1,-0.00136898,-0.00080111,-0.00006627,0.00112569,0.00181096,0.00019453
 ,-0.00047520,-0.00010571,0.00035981,0.00020987,-0.00023647,-0.00047884
 ,0.00001165,-0.00007506,-0.00008427,0.00008745,-0.00015693,-0.00041360
 ,-0.00006357,-0.00005647,0.00003559,0.00007857,-0.00002352,0.00004805,
 -0.00015181,-0.00007565,-0.00009742,0.00023384,-0.00002915,0.00019465,
 0.00090822,0.00016692,-0.00042581,-0.00010848,-0.00001496,-0.00007001,
 0.00005200,0.00014912,0.00003725,0.00012837,0.00004505,0.00009569,-0.0
 0038096,-0.00020409,0.00029544,-0.00017277,0.00008316,-0.00002901,-0.0
 0010696,0.00000343,0.00001242,-0.00003907,-0.00019029,-0.00018383,0.00
 018315,-0.00015904,-0.00046549,-0.00008634,0.00006639,-0.00012598,-0.0
 0005400,-0.00004745,-0.00002076,0.00017571,-0.00006703,0.00010722,0.07
 219390,0.00056916,0.00027954,0.00017046,-0.00050389,-0.00012495,-0.000
 11480,-0.00033229,-0.00024932,0.00020169,-0.00022318,-0.00051990,-0.00
 018587,0.00094894,-0.00238176,-0.00037210,-0.00893956,0.01309809,0.002
 38545,-0.01064867,0.00745586,-0.00425360,-0.00029194,0.00103625,-0.000
 49247,0.11299794,-0.36812465,0.02611608,0.00219653,0.00022126,-0.00053
 086,-0.00123460,0.00290182,-0.00094782,-0.00517879,-0.00009024,-0.0009
 3533,-0.00331908,0.00674897,-0.00058552,-0.00017365,-0.00026356,0.0000
 1916,0.00016286,-0.00123851,0.00029210,0.00735364,-0.00869555,0.005595
 93,0.00008986,-0.00212854,-0.00063020,0.00040704,-0.00205251,0.0013472
 8,-0.00001834,-0.00047429,-0.00004899,-0.00020733,-0.00115987,-0.00009
 987,0.00148758,-0.00143870,0.00094576,-0.00037913,0.00028598,-0.000210
 43,0.02033021,-0.00369400,-0.00702459,0.00004909,-0.00029968,-0.000114
 28,-0.00152140,-0.00129034,0.00052817,-0.00079061,-0.00015705,0.000031
 09,-0.00014382,0.00151311,-0.00031295,0.00043763,0.00011833,0.00003673
 ,0.00105864,0.00116054,-0.00002751,-0.00203484,-0.00393335,0.00077435,
 0.00067420,0.00029148,-0.00065080,-0.00014406,0.00028128,0.00029478,0.
 00028486,-0.00014664,-0.00030481,-0.00026099,0.00033533,0.00055960,0.0
 0005456,0.00024682,-0.00003288,0.00043447,-0.00007046,0.00010145,0.000
 00331,0.00024347,-0.00013571,-0.00058886,0.00024292,-0.00048227,0.0001
 2050,-0.00088996,0.00185887,0.00003995,-0.00001825,0.00003933,0.000000
 33,-0.00001331,0.00001129,-0.00005426,-0.00019994,-0.00005365,-0.00002
 364,0.00025884,0.00009512,-0.00006578,-0.00026160,-0.00014216,0.000029
 75,0.00000822,-0.00002492,0.00014212,0.00025146,0.00009331,0.00025579,
 0.00003676,0.00006860,0.00001843,-0.00010523,0.00010529,0.00004042,-0.
 00005441,0.00008760,-0.00023313,-0.00007872,0.00000796,-0.11287600,0.3
 6313897,-0.00012636,-0.00010006,-0.00005101,-0.00003126,0.00001346,-0.
 00004827,0.00002701,0.00003447,-0.00008922,0.00000111,-0.00000975,-0.0
 0005700,-0.00105100,-0.00210257,-0.00194170,0.00530079,0.00105420,0.00
 805066,0.00036223,-0.00025927,-0.00438357,0.00004862,0.00016111,-0.000
 09337,-0.00608561,0.03506941,-0.02568165,-0.00079901,-0.00075182,0.000
 58047,-0.00021475,0.00050102,-0.00018230,-0.00047939,0.00049479,0.0000
 2146,0.00041509,-0.00152482,-0.00247414,-0.00048720,-0.00045799,-0.000
 21181,0.00003828,-0.00014165,0.00028465,-0.00074602,-0.00055606,-0.001
 12271,0.00059899,0.00095577,0.00025113,-0.00057956,-0.00038979,0.00081
 545,0.00019334,-0.00043172,-0.00021486,0.00016297,0.00097587,0.0006768
 0,-0.00004231,0.00002114,0.00015471,0.00005779,0.00009320,-0.00007728,
 0.00142743,-0.01351740,-0.00569771,0.00022291,-0.00004549,-0.00011097,
 -0.00005889,0.00263643,-0.00067547,0.00014120,0.00015686,0.00002494,0.
 00015416,-0.00003009,0.00027661,-0.00002727,-0.00009569,-0.00005998,-0
 .00005031,-0.00001189,0.00018091,-0.00038107,0.00054863,-0.00015573,0.
 00013601,0.00016368,-0.00009786,-0.00014824,0.00005114,-0.00010200,-0.
 00012186,-0.00000492,0.00005148,0.00002137,-0.00016830,-0.00027346,-0.
 00001757,-0.00006687,-0.00020946,-0.00005784,0.00005821,-0.00009571,-0
 .00009905,-0.00005394,-0.00013696,-0.00011200,0.00001483,-0.00024314,-
 0.00040060,0.00129773,-0.00097324,0.00000553,0.00001242,0.00000456,-0.
 00001325,-0.00006998,-0.00002180,-0.00001458,-0.00000652,-0.00006548,0
 .00018852,0.00004407,-0.00003639,-0.00005648,-0.00003512,-0.00005743,0
 .00001392,-0.00001851,0.00001461,-0.00018244,-0.00000274,0.00013980,0.
 00004148,-0.00030402,0.00014975,-0.00000583,-0.00004624,-0.00002698,-0
 .00001824,-0.00006429,-0.00000589,-0.00000435,-0.00003786,0.00006843,0
 .00285357,-0.02305306,0.03392810\\-0.00000682,-0.00000443,-0.00000148,
 -0.00000439,0.00000378,-0.00000229,0.00000452,-0.00000246,-0.00000004,
 -0.00000608,0.00001211,-0.00000399,0.00001731,0.00002179,-0.00000497,-
 0.00002202,-0.00001057,-0.00000480,-0.00000634,0.00000061,0.00000144,0
 .00000234,-0.00000961,0.00001178,-0.00000790,0.00000610,-0.00001135,0.
 00003624,0.00001131,-0.00000851,0.00000445,0.00000227,0.00001302,-0.00
 002002,-0.00000190,-0.00001687,-0.00000717,-0.00000636,0.00000569,-0.0
 0000055,-0.00000356,0.00000046,0.00000600,-0.00000415,-0.00000067,0.00
 001647,-0.00000012,-0.00000163,0.00000559,-0.00000302,-0.00000891,-0.0
 0000238,0.00000193,-0.00000182,-0.00000271,0.00000981,0.00000356,0.000
 00139,-0.00000540,-0.00000548,-0.00000689,0.00001088,-0.00002607,0.000
 00829,0.00000610,0.00000275,0.00002320,0.00001066,0.00002303,0.0000006
 2,-0.00000349,-0.00000111,-0.00004964,-0.00004965,0.00001245,0.0000082
 1,0.00001690,0.00000841,-0.00000316,-0.00000519,0.00000457,-0.00000156
 ,-0.00000379,-0.00000399,0.00000316,-0.00001623,0.00000459,0.00001286,
 0.00001002,-0.00000131,-0.00000029,0.00000075,-0.00000023,0.00000162,-
 0.00000107,-0.00000203,-0.00000134,-0.00000017,0.00000255,-0.00000168,
 0.00000034,-0.00000101,0.00000033,0.00000066,-0.00000057,-0.00000001,0
 .00000057,-0.00000090,-0.00000028,-0.00000107,0.00000094,-0.00000144,0
 .00000138,-0.00000119,-0.00000012,0.00000319,0.00000359,-0.00000074,-0
 .00000096,0.00000232,-0.00000241,-0.00000019,-0.00000076,-0.00000006,-
 0.00000140,0.00000420,0.00000612,-0.00000332,0.00000263,0.00000203,0.0
 0001282,0.00000353,0.00000036,-0.00000014,0.00000099,-0.00000090,-0.00
 000120,-0.00000021,-0.00000005,-0.00000130,-0.00000095,0.00000007,0.00
 000131,-0.00000052,-0.00000075,0.00000072,0.00000068,-0.00000081,0.000
 00004,0.00000078,-0.00000264,-0.00000531,-0.00000028\\\@


 ROSE IS A RED
 TY COBB IS BLUE
 'CAUSE PETE JUST HIT
 NO. 4592.
 Job cpu time:       0 days 20 hours 32 minutes 51.2 seconds.
 Elapsed time:       0 days  2 hours 34 minutes  9.1 seconds.
 File lengths (MBytes):  RWF=   2492 Int=      0 D2E=      0 Chk=     43 Scr=      1
 Normal termination of Gaussian 16 at Mon Jul 30 23:33:06 2018.
