 Entering Gaussian System, Link 0=g16
 Initial command:
 /opt/software/gaussian/g16.a03/l1.exe "/localscratch/cieritan.6775272.0/Gau-20873.inp" -scrdir="/localscratch/cieritan.6775272.0/"
 Entering Link 1 = /opt/software/gaussian/g16.a03/l1.exe PID=     20874.
  
 Copyright (c) 1988,1990,1992,1993,1995,1998,2003,2009,2016,
            Gaussian, Inc.  All Rights Reserved.
  
 This is part of the Gaussian(R) 16 program.  It is based on
 the Gaussian(R) 09 system (copyright 2009, Gaussian, Inc.),
 the Gaussian(R) 03 system (copyright 2003, Gaussian, Inc.),
 the Gaussian(R) 98 system (copyright 1998, Gaussian, Inc.),
 the Gaussian(R) 94 system (copyright 1995, Gaussian, Inc.),
 the Gaussian 92(TM) system (copyright 1992, Gaussian, Inc.),
 the Gaussian 90(TM) system (copyright 1990, Gaussian, Inc.),
 the Gaussian 88(TM) system (copyright 1988, Gaussian, Inc.),
 the Gaussian 86(TM) system (copyright 1986, Carnegie Mellon
 University), and the Gaussian 82(TM) system (copyright 1983,
 Carnegie Mellon University). Gaussian is a federally registered
 trademark of Gaussian, Inc.
  
 This software contains proprietary and confidential information,
 including trade secrets, belonging to Gaussian, Inc.
  
 This software is provided under written license and may be
 used, copied, transmitted, or stored only in accord with that
 written license.
  
 The following legend is applicable only to US Government
 contracts under FAR:
  
                    RESTRICTED RIGHTS LEGEND
  
 Use, reproduction and disclosure by the US Government is
 subject to restrictions as set forth in subparagraphs (a)
 and (c) of the Commercial Computer Software - Restricted
 Rights clause in FAR 52.227-19.
  
 Gaussian, Inc.
 340 Quinnipiac St., Bldg. 40, Wallingford CT 06492
  
  
 ---------------------------------------------------------------
 Warning -- This program may not be used in any manner that
 competes with the business of Gaussian, Inc. or will provide
 assistance to any competitor of Gaussian, Inc.  The licensee
 of this program is prohibited from giving any competitor of
 Gaussian, Inc. access to this program.  By using this program,
 the user acknowledges that Gaussian, Inc. is engaged in the
 business of creating and licensing software in the field of
 computational chemistry and represents and warrants to the
 licensee that it is not a competitor of Gaussian, Inc. and that
 it will not use this program in any manner prohibited above.
 ---------------------------------------------------------------
  

 Cite this work as:
 Gaussian 16, Revision A.03,
 M. J. Frisch, G. W. Trucks, H. B. Schlegel, G. E. Scuseria, 
 M. A. Robb, J. R. Cheeseman, G. Scalmani, V. Barone, 
 G. A. Petersson, H. Nakatsuji, X. Li, M. Caricato, A. V. Marenich, 
 J. Bloino, B. G. Janesko, R. Gomperts, B. Mennucci, H. P. Hratchian, 
 J. V. Ortiz, A. F. Izmaylov, J. L. Sonnenberg, D. Williams-Young, 
 F. Ding, F. Lipparini, F. Egidi, J. Goings, B. Peng, A. Petrone, 
 T. Henderson, D. Ranasinghe, V. G. Zakrzewski, J. Gao, N. Rega, 
 G. Zheng, W. Liang, M. Hada, M. Ehara, K. Toyota, R. Fukuda, 
 J. Hasegawa, M. Ishida, T. Nakajima, Y. Honda, O. Kitao, H. Nakai, 
 T. Vreven, K. Throssell, J. A. Montgomery, Jr., J. E. Peralta, 
 F. Ogliaro, M. J. Bearpark, J. J. Heyd, E. N. Brothers, K. N. Kudin, 
 V. N. Staroverov, T. A. Keith, R. Kobayashi, J. Normand, 
 K. Raghavachari, A. P. Rendell, J. C. Burant, S. S. Iyengar, 
 J. Tomasi, M. Cossi, J. M. Millam, M. Klene, C. Adamo, R. Cammi, 
 J. W. Ochterski, R. L. Martin, K. Morokuma, O. Farkas, 
 J. B. Foresman, and D. J. Fox, Gaussian, Inc., Wallingford CT, 2016.
 
 ******************************************
 Gaussian 16:  ES64L-G16RevA.03 25-Dec-2016
                30-Jul-2018 
 ******************************************
 %rwf=/scratch/cieritan/rwf/SULFENTRAZONE_1.rwf
 %chk=/scratch/cieritan/chk/SULFENTRAZONE_1.chk
 %mem=4000mb
 %nproc=8
 Will use up to    8 processors via shared memory.
 ----------------------------------------------------------------------
 # opt=maxcycles=150 freq b3lyp/6-31++g(d,p) empiricaldispersion=GD3 in
 t=ultrafine scf=xqc pop=(mk,dipole)
 ----------------------------------------------------------------------
 1/6=150,18=20,19=15,26=4,38=1/1,3;
 2/9=110,12=2,17=6,18=5,40=1/2;
 3/5=1,6=6,7=1111,11=2,25=1,30=1,71=1,74=-5,75=-5,124=31/1,2,3;
 4//1;
 5/5=2,8=3,13=1,38=5/2,8;
 6/7=2,8=2,9=2,10=2,15=24,20=1,28=1/1,2;
 7//1,2,3,16;
 1/6=150,18=20,19=15,26=4/3(2);
 2/9=110/2;
 99//99;
 2/9=110/2;
 3/5=1,6=6,7=1111,11=2,25=1,30=1,71=1,74=-5,75=-5,124=31/1,2,3;
 4/5=5,16=3,69=1/1;
 5/5=2,8=3,13=1,38=5/2,8;
 7//1,2,3,16;
 1/6=150,18=20,19=15,26=4/3(-5);
 2/9=110/2;
 6/7=2,8=2,9=2,10=2,15=24,19=2,20=1,28=1/1,2;
 99/9=1/99;
 ------------------------------
 Original File: SULFENTRAZONE_1
 ------------------------------
 Symbolic Z-matrix:
 Charge =  1 Multiplicity = 1
 Cl                   -0.66381   3.80096  -0.16959 
 Cl                    4.35634   1.97591   0.03979 
 S                     2.74827  -2.49919   0.06175 
 F                    -5.40588  -1.21032  -0.68791 
 F                    -4.21733  -2.46028   0.52573 
 O                    -1.64969  -0.81976  -1.94995 
 O                     1.35226  -2.58746   0.43019 
 O                     3.20179  -2.97981  -1.20399 
 N                    -1.47575   0.94123  -0.32375 
 N                    -3.26518  -0.50944  -0.23711 
 N                    -2.30315   1.21873   0.79651 
 N                     3.13162  -0.77359   0.06542 
 C                    -0.04644   1.15938  -0.14759 
 C                    -2.00374  -0.24772  -0.97416 
 C                    -3.40309   0.40669   0.8088 
 C                     2.22237   0.28489  -0.01873 
 C                     0.82761   0.07344  -0.06916 
 C                     0.42029   2.48135  -0.12781 
 C                     2.68147   1.64056  -0.02554 
 C                     1.80085   2.71517  -0.07778 
 C                    -4.14786  -1.66671  -0.55867 
 C                    -4.49984   0.51131   1.77096 
 C                     3.75772  -3.06724   1.34036 
 H                     0.42815  -0.95658  -0.05713 
 H                     4.12101  -0.51237  -0.09477 
 H                     2.18094   3.74614  -0.08269 
 H                    -3.78673  -2.21261  -1.47453 
 H                    -4.34855   1.27505   2.55834 
 H                    -4.69369  -0.44154   2.31448 
 H                    -5.4695    0.76801   1.28376 
 H                     4.7669   -3.38228   1.01404 
 H                     3.92803  -2.35313   2.1641 
 H                     3.35042  -3.96359   1.8488 
 H                    -2.11703   2.05946   1.36208 
 

 GradGradGradGradGradGradGradGradGradGradGradGradGradGradGradGradGradGrad
 Berny optimization.
 Initialization pass.
                           ----------------------------
                           !    Initial Parameters    !
                           ! (Angstroms and Degrees)  !
 --------------------------                            --------------------------
 ! Name  Definition              Value          Derivative Info.                !
 --------------------------------------------------------------------------------
 ! R1    R(1,18)                 1.7083         estimate D2E/DX2                !
 ! R2    R(2,19)                 1.7094         estimate D2E/DX2                !
 ! R3    R(3,7)                  1.4465         estimate D2E/DX2                !
 ! R4    R(3,8)                  1.4279         estimate D2E/DX2                !
 ! R5    R(3,12)                 1.7677         estimate D2E/DX2                !
 ! R6    R(3,23)                 1.7253         estimate D2E/DX2                !
 ! R7    R(4,21)                 1.3445         estimate D2E/DX2                !
 ! R8    R(5,21)                 1.3456         estimate D2E/DX2                !
 ! R9    R(6,14)                 1.1852         estimate D2E/DX2                !
 ! R10   R(9,11)                 1.4201         estimate D2E/DX2                !
 ! R11   R(9,13)                 1.4566         estimate D2E/DX2                !
 ! R12   R(9,14)                 1.4544         estimate D2E/DX2                !
 ! R13   R(10,14)                1.4842         estimate D2E/DX2                !
 ! R14   R(10,15)                1.3972         estimate D2E/DX2                !
 ! R15   R(10,21)                1.4906         estimate D2E/DX2                !
 ! R16   R(11,15)                1.3673         estimate D2E/DX2                !
 ! R17   R(11,34)                1.0302         estimate D2E/DX2                !
 ! R18   R(12,16)                1.3979         estimate D2E/DX2                !
 ! R19   R(12,25)                1.0358         estimate D2E/DX2                !
 ! R20   R(13,17)                1.3962         estimate D2E/DX2                !
 ! R21   R(13,18)                1.4021         estimate D2E/DX2                !
 ! R22   R(15,22)                1.4627         estimate D2E/DX2                !
 ! R23   R(16,17)                1.4116         estimate D2E/DX2                !
 ! R24   R(16,19)                1.4313         estimate D2E/DX2                !
 ! R25   R(17,24)                1.1048         estimate D2E/DX2                !
 ! R26   R(18,20)                1.4011         estimate D2E/DX2                !
 ! R27   R(19,20)                1.3903         estimate D2E/DX2                !
 ! R28   R(20,26)                1.0988         estimate D2E/DX2                !
 ! R29   R(21,27)                1.1257         estimate D2E/DX2                !
 ! R30   R(22,28)                1.1073         estimate D2E/DX2                !
 ! R31   R(22,29)                1.114          estimate D2E/DX2                !
 ! R32   R(22,30)                1.1151         estimate D2E/DX2                !
 ! R33   R(23,31)                1.1064         estimate D2E/DX2                !
 ! R34   R(23,32)                1.1034         estimate D2E/DX2                !
 ! R35   R(23,33)                1.1081         estimate D2E/DX2                !
 ! A1    A(7,3,8)              120.783          estimate D2E/DX2                !
 ! A2    A(7,3,12)             105.5653         estimate D2E/DX2                !
 ! A3    A(7,3,23)             110.8435         estimate D2E/DX2                !
 ! A4    A(8,3,12)             105.1618         estimate D2E/DX2                !
 ! A5    A(8,3,23)             111.1187         estimate D2E/DX2                !
 ! A6    A(12,3,23)            101.127          estimate D2E/DX2                !
 ! A7    A(11,9,13)            116.5565         estimate D2E/DX2                !
 ! A8    A(11,9,14)            107.5181         estimate D2E/DX2                !
 ! A9    A(13,9,14)            122.1906         estimate D2E/DX2                !
 ! A10   A(14,10,15)           109.8765         estimate D2E/DX2                !
 ! A11   A(14,10,21)           122.2121         estimate D2E/DX2                !
 ! A12   A(15,10,21)           127.7418         estimate D2E/DX2                !
 ! A13   A(9,11,15)            111.0857         estimate D2E/DX2                !
 ! A14   A(9,11,34)            119.1627         estimate D2E/DX2                !
 ! A15   A(15,11,34)           128.6882         estimate D2E/DX2                !
 ! A16   A(3,12,16)            126.7252         estimate D2E/DX2                !
 ! A17   A(3,12,25)            116.9387         estimate D2E/DX2                !
 ! A18   A(16,12,25)           114.9002         estimate D2E/DX2                !
 ! A19   A(9,13,17)            120.3062         estimate D2E/DX2                !
 ! A20   A(9,13,18)            118.0062         estimate D2E/DX2                !
 ! A21   A(17,13,18)           121.6117         estimate D2E/DX2                !
 ! A22   A(6,14,9)             130.8641         estimate D2E/DX2                !
 ! A23   A(6,14,10)            125.2828         estimate D2E/DX2                !
 ! A24   A(9,14,10)            103.3327         estimate D2E/DX2                !
 ! A25   A(10,15,11)           107.6546         estimate D2E/DX2                !
 ! A26   A(10,15,22)           127.8285         estimate D2E/DX2                !
 ! A27   A(11,15,22)           124.5158         estimate D2E/DX2                !
 ! A28   A(12,16,17)           122.0996         estimate D2E/DX2                !
 ! A29   A(12,16,19)           120.5855         estimate D2E/DX2                !
 ! A30   A(17,16,19)           117.2993         estimate D2E/DX2                !
 ! A31   A(13,17,16)           120.2682         estimate D2E/DX2                !
 ! A32   A(13,17,24)           119.959          estimate D2E/DX2                !
 ! A33   A(16,17,24)           119.7697         estimate D2E/DX2                !
 ! A34   A(1,18,13)            121.1132         estimate D2E/DX2                !
 ! A35   A(1,18,20)            119.8186         estimate D2E/DX2                !
 ! A36   A(13,18,20)           119.0678         estimate D2E/DX2                !
 ! A37   A(2,19,16)            119.9945         estimate D2E/DX2                !
 ! A38   A(2,19,20)            118.0609         estimate D2E/DX2                !
 ! A39   A(16,19,20)           121.9438         estimate D2E/DX2                !
 ! A40   A(18,20,19)           119.7659         estimate D2E/DX2                !
 ! A41   A(18,20,26)           119.8184         estimate D2E/DX2                !
 ! A42   A(19,20,26)           120.4155         estimate D2E/DX2                !
 ! A43   A(4,21,5)             103.2591         estimate D2E/DX2                !
 ! A44   A(4,21,10)            108.1363         estimate D2E/DX2                !
 ! A45   A(4,21,27)            112.7424         estimate D2E/DX2                !
 ! A46   A(5,21,10)            108.337          estimate D2E/DX2                !
 ! A47   A(5,21,27)            112.7211         estimate D2E/DX2                !
 ! A48   A(10,21,27)           111.2262         estimate D2E/DX2                !
 ! A49   A(15,22,28)           114.4954         estimate D2E/DX2                !
 ! A50   A(15,22,29)           112.9692         estimate D2E/DX2                !
 ! A51   A(15,22,30)           112.3999         estimate D2E/DX2                !
 ! A52   A(28,22,29)           105.4738         estimate D2E/DX2                !
 ! A53   A(28,22,30)           105.7061         estimate D2E/DX2                !
 ! A54   A(29,22,30)           104.9968         estimate D2E/DX2                !
 ! A55   A(3,23,31)            114.1325         estimate D2E/DX2                !
 ! A56   A(3,23,32)            115.4991         estimate D2E/DX2                !
 ! A57   A(3,23,33)            113.0367         estimate D2E/DX2                !
 ! A58   A(31,23,32)           105.2884         estimate D2E/DX2                !
 ! A59   A(31,23,33)           103.9018         estimate D2E/DX2                !
 ! A60   A(32,23,33)           103.7518         estimate D2E/DX2                !
 ! D1    D(7,3,12,16)          -19.7624         estimate D2E/DX2                !
 ! D2    D(7,3,12,25)          174.6858         estimate D2E/DX2                !
 ! D3    D(8,3,12,16)          108.9869         estimate D2E/DX2                !
 ! D4    D(8,3,12,25)          -56.5649         estimate D2E/DX2                !
 ! D5    D(23,3,12,16)        -135.3077         estimate D2E/DX2                !
 ! D6    D(23,3,12,25)          59.1405         estimate D2E/DX2                !
 ! D7    D(7,3,23,31)          158.3181         estimate D2E/DX2                !
 ! D8    D(7,3,23,32)          -79.42           estimate D2E/DX2                !
 ! D9    D(7,3,23,33)           39.8555         estimate D2E/DX2                !
 ! D10   D(8,3,23,31)           21.086          estimate D2E/DX2                !
 ! D11   D(8,3,23,32)          143.3478         estimate D2E/DX2                !
 ! D12   D(8,3,23,33)          -97.3767         estimate D2E/DX2                !
 ! D13   D(12,3,23,31)         -90.1196         estimate D2E/DX2                !
 ! D14   D(12,3,23,32)          32.1423         estimate D2E/DX2                !
 ! D15   D(12,3,23,33)         151.4178         estimate D2E/DX2                !
 ! D16   D(13,9,11,15)        -149.1411         estimate D2E/DX2                !
 ! D17   D(13,9,11,34)          41.6393         estimate D2E/DX2                !
 ! D18   D(14,9,11,15)          -7.6691         estimate D2E/DX2                !
 ! D19   D(14,9,11,34)        -176.8887         estimate D2E/DX2                !
 ! D20   D(11,9,13,17)         108.6392         estimate D2E/DX2                !
 ! D21   D(11,9,13,18)         -74.4765         estimate D2E/DX2                !
 ! D22   D(14,9,13,17)         -26.7807         estimate D2E/DX2                !
 ! D23   D(14,9,13,18)         150.1035         estimate D2E/DX2                !
 ! D24   D(11,9,14,6)          178.4091         estimate D2E/DX2                !
 ! D25   D(11,9,14,10)           6.5358         estimate D2E/DX2                !
 ! D26   D(13,9,14,6)          -42.7677         estimate D2E/DX2                !
 ! D27   D(13,9,14,10)         145.359          estimate D2E/DX2                !
 ! D28   D(15,10,14,6)        -176.0399         estimate D2E/DX2                !
 ! D29   D(15,10,14,9)          -3.5653         estimate D2E/DX2                !
 ! D30   D(21,10,14,6)           8.3524         estimate D2E/DX2                !
 ! D31   D(21,10,14,9)        -179.1729         estimate D2E/DX2                !
 ! D32   D(14,10,15,11)         -0.9093         estimate D2E/DX2                !
 ! D33   D(14,10,15,22)        179.452          estimate D2E/DX2                !
 ! D34   D(21,10,15,11)        174.3905         estimate D2E/DX2                !
 ! D35   D(21,10,15,22)         -5.2482         estimate D2E/DX2                !
 ! D36   D(14,10,21,4)        -130.4564         estimate D2E/DX2                !
 ! D37   D(14,10,21,5)         118.2703         estimate D2E/DX2                !
 ! D38   D(14,10,21,27)         -6.1494         estimate D2E/DX2                !
 ! D39   D(15,10,21,4)          54.7693         estimate D2E/DX2                !
 ! D40   D(15,10,21,5)         -56.504          estimate D2E/DX2                !
 ! D41   D(15,10,21,27)        179.0763         estimate D2E/DX2                !
 ! D42   D(9,11,15,10)           5.3168         estimate D2E/DX2                !
 ! D43   D(9,11,15,22)        -175.0296         estimate D2E/DX2                !
 ! D44   D(34,11,15,10)        173.2382         estimate D2E/DX2                !
 ! D45   D(34,11,15,22)         -7.1082         estimate D2E/DX2                !
 ! D46   D(3,12,16,17)           2.4742         estimate D2E/DX2                !
 ! D47   D(3,12,16,19)        -178.998          estimate D2E/DX2                !
 ! D48   D(25,12,16,17)        168.2789         estimate D2E/DX2                !
 ! D49   D(25,12,16,19)        -13.1933         estimate D2E/DX2                !
 ! D50   D(9,13,17,16)         174.3261         estimate D2E/DX2                !
 ! D51   D(9,13,17,24)          -5.0296         estimate D2E/DX2                !
 ! D52   D(18,13,17,16)         -2.4436         estimate D2E/DX2                !
 ! D53   D(18,13,17,24)        178.2008         estimate D2E/DX2                !
 ! D54   D(9,13,18,1)            5.3148         estimate D2E/DX2                !
 ! D55   D(9,13,18,20)        -174.4518         estimate D2E/DX2                !
 ! D56   D(17,13,18,1)        -177.8439         estimate D2E/DX2                !
 ! D57   D(17,13,18,20)          2.3895         estimate D2E/DX2                !
 ! D58   D(10,15,22,28)        175.7048         estimate D2E/DX2                !
 ! D59   D(10,15,22,29)         54.9378         estimate D2E/DX2                !
 ! D60   D(10,15,22,30)        -63.6613         estimate D2E/DX2                !
 ! D61   D(11,15,22,28)         -3.8773         estimate D2E/DX2                !
 ! D62   D(11,15,22,29)       -124.6443         estimate D2E/DX2                !
 ! D63   D(11,15,22,30)        116.7566         estimate D2E/DX2                !
 ! D64   D(12,16,17,13)        179.7441         estimate D2E/DX2                !
 ! D65   D(12,16,17,24)         -0.8991         estimate D2E/DX2                !
 ! D66   D(19,16,17,13)          1.1703         estimate D2E/DX2                !
 ! D67   D(19,16,17,24)       -179.4728         estimate D2E/DX2                !
 ! D68   D(12,16,19,2)           1.162          estimate D2E/DX2                !
 ! D69   D(12,16,19,20)       -178.5198         estimate D2E/DX2                !
 ! D70   D(17,16,19,2)         179.7585         estimate D2E/DX2                !
 ! D71   D(17,16,19,20)          0.0767         estimate D2E/DX2                !
 ! D72   D(1,18,20,19)         179.1314         estimate D2E/DX2                !
 ! D73   D(1,18,20,26)          -1.026          estimate D2E/DX2                !
 ! D74   D(13,18,20,19)         -1.0989         estimate D2E/DX2                !
 ! D75   D(13,18,20,26)        178.7437         estimate D2E/DX2                !
 ! D76   D(2,19,20,18)        -179.7917         estimate D2E/DX2                !
 ! D77   D(2,19,20,26)           0.3667         estimate D2E/DX2                !
 ! D78   D(16,19,20,18)         -0.104          estimate D2E/DX2                !
 ! D79   D(16,19,20,26)       -179.9456         estimate D2E/DX2                !
 --------------------------------------------------------------------------------
 Trust Radius=3.00D-01 FncErr=1.00D-07 GrdErr=1.00D-06 EigMax=2.50D+02 EigMin=1.00D-04
 Number of steps in this run=    150 maximum allowed number of steps=    204.
 GradGradGradGradGradGradGradGradGradGradGradGradGradGradGradGradGradGrad

                          Input orientation:                          
 ---------------------------------------------------------------------
 Center     Atomic      Atomic             Coordinates (Angstroms)
 Number     Number       Type             X           Y           Z
 ---------------------------------------------------------------------
      1         17           0       -0.663810    3.800957   -0.169587
      2         17           0        4.356339    1.975912    0.039790
      3         16           0        2.748268   -2.499194    0.061751
      4          9           0       -5.405884   -1.210317   -0.687908
      5          9           0       -4.217333   -2.460275    0.525734
      6          8           0       -1.649686   -0.819762   -1.949948
      7          8           0        1.352255   -2.587462    0.430193
      8          8           0        3.201790   -2.979810   -1.203991
      9          7           0       -1.475753    0.941234   -0.323748
     10          7           0       -3.265182   -0.509437   -0.237107
     11          7           0       -2.303148    1.218733    0.796509
     12          7           0        3.131621   -0.773587    0.065420
     13          6           0       -0.046436    1.159375   -0.147594
     14          6           0       -2.003744   -0.247718   -0.974155
     15          6           0       -3.403093    0.406689    0.808804
     16          6           0        2.222375    0.284894   -0.018731
     17          6           0        0.827613    0.073438   -0.069164
     18          6           0        0.420289    2.481353   -0.127811
     19          6           0        2.681472    1.640559   -0.025535
     20          6           0        1.800851    2.715170   -0.077782
     21          6           0       -4.147858   -1.666710   -0.558674
     22          6           0       -4.499843    0.511313    1.770958
     23          6           0        3.757722   -3.067235    1.340363
     24          1           0        0.428149   -0.956578   -0.057134
     25          1           0        4.121012   -0.512369   -0.094772
     26          1           0        2.180943    3.746138   -0.082691
     27          1           0       -3.786726   -2.212609   -1.474530
     28          1           0       -4.348553    1.275050    2.558338
     29          1           0       -4.693688   -0.441541    2.314479
     30          1           0       -5.469497    0.768013    1.283757
     31          1           0        4.766904   -3.382282    1.014040
     32          1           0        3.928031   -2.353130    2.164098
     33          1           0        3.350418   -3.963591    1.848795
     34          1           0       -2.117026    2.059462    1.362076
 ---------------------------------------------------------------------
                    Distance matrix (angstroms):
                    1          2          3          4          5
     1  Cl   0.000000
     2  Cl   5.345701   0.000000
     3  S    7.168521   4.755307   0.000000
     4  F    6.918727  10.294785   8.289354   0.000000
     5  F    7.232843   9.665596   6.981145   2.109022   0.000000
     6  O    5.049028   6.917166   5.119514   3.981746   3.925952
     7  O    6.725783   5.477346   1.446511   6.987068   5.571859
     8  O    7.873478   5.238240   1.427857   8.802812   7.635788
     9  N    2.976749   5.934308   5.461457   4.495299   4.450634
    10  N    5.034997   8.021298   6.341138   2.297185   2.300932
    11  N    3.207593   6.744977   6.315034   4.210790   4.156023
    12  N    5.948695   3.010039   1.767680   8.581796   7.554067
    13  C    2.712856   4.481771   4.608614   5.884816   5.563418
    14  C    4.339876   6.813462   5.359465   3.547265   3.470598
    15  C    4.470120   7.953781   6.844084   2.977587   2.993760
    16  C    4.551431   2.723375   2.834464   7.802166   7.021555
    17  C    4.016071   4.010385   3.213174   6.394322   5.676714
    18  C    1.708324   3.971908   5.501024   6.920002   6.808403
    19  C    3.984844   1.709359   4.141212   8.600672   8.044517
    20  C    2.694794   2.662864   5.301571   8.229139   7.960402
    21  C    6.495026   9.270826   6.973845   1.344480   1.345553
    22  C    5.413190   9.141879   8.032413   3.135433   3.234305
    23  C    8.306742   5.242439   1.725258   9.567325   8.039498
    24  H    4.882536   4.903016   2.788682   5.873517   4.917453
    25  H    6.442430   2.503004   2.420000   9.570825   8.585299
    26  H    2.846608   2.807321   6.272710   9.082548   8.934634
    27  H    6.900613   9.281507   6.719259   2.060349   2.061023
    28  H    5.234416   9.088973   8.416813   4.222927   4.254568
    29  H    6.356830   9.639568   8.043098   3.180026   2.738943
    30  H    5.865627   9.977651   8.927463   2.793797   3.544624
    31  H    9.082541   5.461499   2.400331  10.540383   9.044615
    32  H    8.025203   4.841150   2.415168   9.826593   8.309192
    33  H    8.970847   6.289839   2.387587   9.523035   7.828238
    34  H    2.736902   6.607562   6.792884   5.070550   5.053591
                    6          7          8          9         10
     6  O    0.000000
     7  O    4.219181   0.000000
     8  O    5.362749   2.499055   0.000000
     9  N    2.403307   4.584512   6.166751   0.000000
    10  N    2.374859   5.107269   6.989945   2.305213   0.000000
    11  N    3.482169   5.289922   7.206532   1.420058   2.231691
    12  N    5.188905   2.566972   2.546320   4.931527   6.409398
    13  C    3.120236   4.040911   5.366544   1.456559   3.626744
    14  C    1.185227   4.325428   5.883429   1.454445   1.484238
    15  C    3.491322   5.632195   7.690527   2.298489   1.397224
    16  C    4.465727   3.034645   3.608654   3.768285   5.549048
    17  C    3.236072   2.757716   4.030741   2.474546   4.137502
    18  C    4.301435   5.183900   6.222476   2.450578   4.747575
    19  C    5.339988   4.455409   4.796592   4.226169   6.326922
    20  C    5.282703   5.345763   5.971915   3.734097   6.007343
    21  C    2.982252   5.663646   7.493864   3.741217   1.490571
    22  C    4.872402   6.756264   8.964006   3.703748   2.568782
    23  C    6.716944   2.616269   2.605847   6.798996   7.638843
    24  H    2.814047   1.936812   3.619645   2.701410   3.724650
    25  H    6.069359   3.499659   2.857202   5.786983   7.387566
    26  H    6.245623   6.408140   6.894767   4.614870   6.913323
    27  H    2.594800   5.493415   7.035705   4.075736   2.168875
    28  H    5.656568   7.207441   9.448102   4.082993   3.488925
    29  H    5.253031   6.686474   9.008941   4.384908   2.925035
    30  H    5.250603   7.650104   9.768638   4.308604   2.967138
    31  H    7.518268   3.554215   2.744308   7.710592   8.621660
    32  H    7.098417   3.113834   3.502025   6.800227   7.804313
    33  H    7.022475   2.810484   3.210828   7.215898   7.749086
    34  H    4.413371   5.873518   7.763296   2.122185   3.236494
                   11         12         13         14         15
    11  N    0.000000
    12  N    5.834427   0.000000
    13  C    2.446958   3.725824   0.000000
    14  C    2.318485   5.265855   2.548366   0.000000
    15  C    1.367277   6.681928   3.570487   2.359103   0.000000
    16  C    4.692231   1.397924   2.434918   4.365386   5.687314
    17  C    3.444235   2.458458   1.396199   2.989771   4.333677
    18  C    3.140969   4.240671   1.402088   3.747007   4.449689
    19  C    5.069530   2.457439   2.772710   5.139720   6.264223
    20  C    4.454943   3.736694   2.416162   4.904807   5.761610
    21  C    3.683104   7.360569   4.997740   2.604494   2.593001
    22  C    2.505087   7.924586   4.892204   3.787121   1.462719
    23  C    7.443080   2.697833   5.877913   6.819176   7.976715
    24  H    3.594533   2.712428   2.170408   2.693977   4.157735
    25  H    6.712744   1.035756   4.490561   6.193221   7.633693
    26  H    5.221862   4.621000   3.414202   5.852965   6.567202
    27  H    4.374098   7.232272   5.207764   2.700036   3.495928
    28  H    2.700166   8.146444   5.083666   4.505048   2.169980
    29  H    3.282594   8.148864   5.497425   4.253055   2.156893
    30  H    3.235170   8.822704   5.622412   4.259263   2.150851
    31  H    8.438145   3.221695   6.718950   7.721404   9.008178
    32  H    7.311368   2.744754   5.786018   7.033303   7.949767
    33  H    7.741227   3.661205   6.462892   7.102381   8.111155
    34  H    1.030210   6.103751   2.715990   3.285405   2.166042
                   16         17         18         19         20
    16  C    0.000000
    17  C    1.411601   0.000000
    18  C    2.843210   2.442828   0.000000
    19  C    1.431308   2.427873   2.414610   0.000000
    20  C    2.467268   2.815318   1.401116   1.390328   0.000000
    21  C    6.684322   5.293680   6.185470   7.606708   7.404004
    22  C    6.960062   5.653280   5.629750   7.488249   6.926296
    23  C    3.929529   4.520634   6.639339   5.018697   6.267112
    24  H    2.182195   1.104830   3.438666   3.438544   3.920009
    25  H    2.060639   3.345191   4.760127   2.590785   3.974977
    26  H    3.462083   3.914130   2.168322   2.165008   1.098813
    27  H    6.668296   5.337901   6.445611   7.667077   7.579903
    28  H    7.127327   5.927928   5.604678   7.498750   6.843847
    29  H    7.335087   6.035870   6.376586   8.012727   7.607021
    30  H    7.816315   6.478150   6.294254   8.301438   7.648736
    31  H    4.581422   5.351013   7.387767   5.537028   6.867930
    32  H    3.825333   4.526398   6.397603   4.722071   5.936210
    33  H    4.775956   5.132321   7.350505   5.947024   7.121707
    34  H    4.887343   3.829313   2.972494   5.012637   4.225270
                   21         22         23         24         25
    21  C    0.000000
    22  C    3.208561   0.000000
    23  C    8.250213   9.009928   0.000000
    24  H    4.657861   5.457264   4.182574   0.000000
    25  H    8.361933   8.879640   2.952784   3.719674   0.000000
    26  H    8.341415   7.650687   7.136762   5.018812   4.679626
    27  H    1.125706   4.296682   8.097697   4.620800   8.205295
    28  H    4.290687   1.107317   9.276346   5.885384   9.053584
    29  H    3.170801   1.113967   8.903342   5.667718   9.138295
    30  H    3.327034   1.115118   9.992692   6.289231   9.773310
    31  H    9.213555  10.079961   1.106431   5.084904   3.143730
    32  H    8.550125   8.910031   1.103400   4.374175   2.920297
    33  H    8.203396   9.036450   1.108086   4.605904   4.035121
    34  H    4.658102   2.870848   7.797189   4.193873   6.902886
                   26         27         28         29         30
    26  H    0.000000
    27  H    8.547336   0.000000
    28  H    7.464290   5.361291   0.000000
    29  H    8.399026   4.279702   1.767843   0.000000
    30  H    8.322598   4.395904   1.771485   1.768414   0.000000
    31  H    7.661879   8.984748  10.352157   9.992092  11.049054
    32  H    6.730635   8.530934   9.045494   8.832374   9.941331
    33  H    8.033569   8.065312   9.339217   8.793710  10.024881
    34  H    4.837847   5.393035   2.650671   3.715007   3.593471
                   31         32         33         34
    31  H    0.000000
    32  H    1.756558   0.000000
    33  H    1.743895   1.739723   0.000000
    34  H    8.781925   7.527079   8.149049   0.000000
 Stoichiometry    C11H11Cl2F2N4O3S(1+)
 Framework group  C1[X(C11H11Cl2F2N4O3S)]
 Deg. of freedom    96
 Full point group                 C1      NOp   1
 Largest Abelian subgroup         C1      NOp   1
 Largest concise Abelian subgroup C1      NOp   1
                         Standard orientation:                         
 ---------------------------------------------------------------------
 Center     Atomic      Atomic             Coordinates (Angstroms)
 Number     Number       Type             X           Y           Z
 ---------------------------------------------------------------------
      1         17           0       -0.663810    3.800957   -0.169587
      2         17           0        4.356339    1.975912    0.039790
      3         16           0        2.748268   -2.499194    0.061751
      4          9           0       -5.405884   -1.210316   -0.687908
      5          9           0       -4.217333   -2.460275    0.525734
      6          8           0       -1.649686   -0.819762   -1.949948
      7          8           0        1.352255   -2.587462    0.430193
      8          8           0        3.201790   -2.979810   -1.203991
      9          7           0       -1.475753    0.941234   -0.323748
     10          7           0       -3.265182   -0.509437   -0.237107
     11          7           0       -2.303148    1.218733    0.796509
     12          7           0        3.131621   -0.773587    0.065420
     13          6           0       -0.046436    1.159375   -0.147594
     14          6           0       -2.003744   -0.247718   -0.974155
     15          6           0       -3.403093    0.406689    0.808804
     16          6           0        2.222375    0.284894   -0.018731
     17          6           0        0.827613    0.073438   -0.069164
     18          6           0        0.420289    2.481353   -0.127811
     19          6           0        2.681472    1.640559   -0.025535
     20          6           0        1.800851    2.715170   -0.077782
     21          6           0       -4.147858   -1.666710   -0.558674
     22          6           0       -4.499843    0.511313    1.770958
     23          6           0        3.757722   -3.067235    1.340363
     24          1           0        0.428149   -0.956578   -0.057134
     25          1           0        4.121012   -0.512369   -0.094772
     26          1           0        2.180943    3.746138   -0.082691
     27          1           0       -3.786726   -2.212609   -1.474530
     28          1           0       -4.348553    1.275050    2.558338
     29          1           0       -4.693688   -0.441541    2.314479
     30          1           0       -5.469497    0.768014    1.283757
     31          1           0        4.766904   -3.382282    1.014040
     32          1           0        3.928031   -2.353130    2.164098
     33          1           0        3.350417   -3.963591    1.848795
     34          1           0       -2.117026    2.059462    1.362076
 ---------------------------------------------------------------------
 Rotational constants (GHZ):           0.2613025           0.1319644           0.0950343
 Standard basis: 6-31++G(d,p) (6D, 7F)
 There are   515 symmetry adapted cartesian basis functions of A   symmetry.
 There are   515 symmetry adapted basis functions of A   symmetry.
   515 basis functions,   896 primitive gaussians,   515 cartesian basis functions
    98 alpha electrons       98 beta electrons
       nuclear repulsion energy      2511.4219970794 Hartrees.
 NAtoms=   34 NActive=   34 NUniq=   34 SFac= 1.00D+00 NAtFMM=   60 NAOKFM=F Big=F
 Integral buffers will be    131072 words long.
 Raffenetti 2 integral format.
 Two-electron integral symmetry is turned on.
 Nuclear repulsion after empirical dispersion term =     2511.3810875540 Hartrees.
 One-electron integrals computed using PRISM.
 NBasis=   515 RedAO= T EigKep=  1.21D-06  NBF=   515
 NBsUse=   513 1.00D-06 EigRej=  3.85D-07 NBFU=   513
 ExpMin= 3.60D-02 ExpMax= 2.52D+04 ExpMxC= 3.78D+03 IAcc=3 IRadAn=         5 AccDes= 0.00D+00
 Harris functional with IExCor=  402 and IRadAn=       5 diagonalized for initial guess.
 HarFok:  IExCor=  402 AccDes= 0.00D+00 IRadAn=         5 IDoV= 1 UseB2=F ITyADJ=14
 ICtDFT=  3500011 ScaDFX=  1.000000  1.000000  1.000000  1.000000
 FoFCou: FMM=F IPFlag=           0 FMFlag=      100000 FMFlg1=           0
         NFxFlg=           0 DoJE=T BraDBF=F KetDBF=T FulRan=T
         wScrn=  0.000000 ICntrl=       500 IOpCl=  0 I1Cent=   200000004 NGrid=           0
         NMat0=    1 NMatS0=      1 NMatT0=    0 NMatD0=    1 NMtDS0=    0 NMtDT0=    0
 Petite list used in FoFCou.
 Requested convergence on RMS density matrix=1.00D-08 within  32 cycles.
 Requested convergence on MAX density matrix=1.00D-06.
 Requested convergence on             energy=1.00D-06.
 No special actions if energy rises.
 EnCoef did     1 forward-backward iterations
 SCF Done:  E(RB3LYP) =  -2388.48167251     A.U. after   18 cycles
            NFock= 18  Conv=0.32D-08     -V/T= 2.0061
 QCSCF skips out because SCF is already converged.

 **********************************************************************

            Population analysis using the SCF density.

 **********************************************************************

 Orbital symmetries:
       Occupied  (A) (A) (A) (A) (A) (A) (A) (A) (A) (A) (A) (A)
                 (A) (A) (A) (A) (A) (A) (A) (A) (A) (A) (A) (A)
                 (A) (A) (A) (A) (A) (A) (A) (A) (A) (A) (A) (A)
                 (A) (A) (A) (A) (A) (A) (A) (A) (A) (A) (A) (A)
                 (A) (A) (A) (A) (A) (A) (A) (A) (A) (A) (A) (A)
                 (A) (A) (A) (A) (A) (A) (A) (A) (A) (A) (A) (A)
                 (A) (A) (A) (A) (A) (A) (A) (A) (A) (A) (A) (A)
                 (A) (A) (A) (A) (A) (A) (A) (A) (A) (A) (A) (A)
                 (A) (A)
       Virtual   (A) (A) (A) (A) (A) (A) (A) (A) (A) (A) (A) (A)
                 (A) (A) (A) (A) (A) (A) (A) (A) (A) (A) (A) (A)
                 (A) (A) (A) (A) (A) (A) (A) (A) (A) (A) (A) (A)
                 (A) (A) (A) (A) (A) (A) (A) (A) (A) (A) (A) (A)
                 (A) (A) (A) (A) (A) (A) (A) (A) (A) (A) (A) (A)
                 (A) (A) (A) (A) (A) (A) (A) (A) (A) (A) (A) (A)
                 (A) (A) (A) (A) (A) (A) (A) (A) (A) (A) (A) (A)
                 (A) (A) (A) (A) (A) (A) (A) (A) (A) (A) (A) (A)
                 (A) (A) (A) (A) (A) (A) (A) (A) (A) (A) (A) (A)
                 (A) (A) (A) (A) (A) (A) (A) (A) (A) (A) (A) (A)
                 (A) (A) (A) (A) (A) (A) (A) (A) (A) (A) (A) (A)
                 (A) (A) (A) (A) (A) (A) (A) (A) (A) (A) (A) (A)
                 (A) (A) (A) (A) (A) (A) (A) (A) (A) (A) (A) (A)
                 (A) (A) (A) (A) (A) (A) (A) (A) (A) (A) (A) (A)
                 (A) (A) (A) (A) (A) (A) (A) (A) (A) (A) (A) (A)
                 (A) (A) (A) (A) (A) (A) (A) (A) (A) (A) (A) (A)
                 (A) (A) (A) (A) (A) (A) (A) (A) (A) (A) (A) (A)
                 (A) (A) (A) (A) (A) (A) (A) (A) (A) (A) (A) (A)
                 (A) (A) (A) (A) (A) (A) (A) (A) (A) (A) (A) (A)
                 (A) (A) (A) (A) (A) (A) (A) (A) (A) (A) (A) (A)
                 (A) (A) (A) (A) (A) (A) (A) (A) (A) (A) (A) (A)
                 (A) (A) (A) (A) (A) (A) (A) (A) (A) (A) (A) (A)
                 (A) (A) (A) (A) (A) (A) (A) (A) (A) (A) (A) (A)
                 (A) (A) (A) (A) (A) (A) (A) (A) (A) (A) (A) (A)
                 (A) (A) (A) (A) (A) (A) (A) (A) (A) (A) (A) (A)
                 (A) (A) (A) (A) (A) (A) (A) (A) (A) (A) (A) (A)
                 (A) (A) (A) (A) (A) (A) (A) (A) (A) (A) (A) (A)
                 (A) (A) (A) (A) (A) (A) (A) (A) (A) (A) (A) (A)
                 (A) (A) (A) (A) (A) (A) (A) (A) (A) (A) (A) (A)
                 (A) (A) (A) (A) (A) (A) (A) (A) (A) (A) (A) (A)
                 (A) (A) (A) (A) (A) (A) (A) (A) (A) (A) (A) (A)
                 (A) (A) (A) (A) (A) (A) (A) (A) (A) (A) (A) (A)
                 (A) (A) (A) (A) (A) (A) (A) (A) (A) (A) (A) (A)
                 (A) (A) (A) (A) (A) (A) (A) (A) (A) (A) (A) (A)
                 (A) (A) (A) (A) (A) (A) (A)
 The electronic state is 1-A.
 Alpha  occ. eigenvalues -- -101.69235-101.67901 -89.24790 -24.88573 -24.88514
 Alpha  occ. eigenvalues --  -19.32258 -19.27639 -19.26887 -14.63339 -14.60552
 Alpha  occ. eigenvalues --  -14.59898 -14.49844 -10.56719 -10.51930 -10.51725
 Alpha  occ. eigenvalues --  -10.39376 -10.39121 -10.38968 -10.38759 -10.38458
 Alpha  occ. eigenvalues --  -10.34326 -10.34160 -10.33816  -9.60738  -9.59413
 Alpha  occ. eigenvalues --   -8.27241  -7.37149  -7.36182  -7.36128  -7.35827
 Alpha  occ. eigenvalues --   -7.34835  -7.34819  -6.23803  -6.23643  -6.23516
 Alpha  occ. eigenvalues --   -1.44104  -1.36776  -1.27703  -1.25410  -1.23019
 Alpha  occ. eigenvalues --   -1.14325  -1.13449  -1.07230  -1.05907  -1.02872
 Alpha  occ. eigenvalues --   -1.00437  -0.96295  -0.93900  -0.91496  -0.90831
 Alpha  occ. eigenvalues --   -0.87552  -0.85695  -0.81804  -0.81333  -0.77559
 Alpha  occ. eigenvalues --   -0.76344  -0.74571  -0.73453  -0.72610  -0.72170
 Alpha  occ. eigenvalues --   -0.71051  -0.69084  -0.67655  -0.66042  -0.64913
 Alpha  occ. eigenvalues --   -0.63089  -0.62329  -0.61951  -0.61546  -0.60615
 Alpha  occ. eigenvalues --   -0.59796  -0.59507  -0.59046  -0.58641  -0.58286
 Alpha  occ. eigenvalues --   -0.56998  -0.56612  -0.55979  -0.55158  -0.54470
 Alpha  occ. eigenvalues --   -0.54138  -0.54037  -0.53801  -0.52486  -0.51307
 Alpha  occ. eigenvalues --   -0.50216  -0.47579  -0.47115  -0.46882  -0.45602
 Alpha  occ. eigenvalues --   -0.45121  -0.44086  -0.43953  -0.43600  -0.43055
 Alpha  occ. eigenvalues --   -0.42180  -0.38376  -0.34258
 Alpha virt. eigenvalues --   -0.23101  -0.17357  -0.15430  -0.14824  -0.13863
 Alpha virt. eigenvalues --   -0.11697  -0.11313  -0.10694  -0.10119  -0.09635
 Alpha virt. eigenvalues --   -0.09052  -0.08572  -0.08268  -0.07970  -0.07321
 Alpha virt. eigenvalues --   -0.06907  -0.06235  -0.06112  -0.05567  -0.05241
 Alpha virt. eigenvalues --   -0.05119  -0.04951  -0.04838  -0.04406  -0.04067
 Alpha virt. eigenvalues --   -0.04059  -0.03268  -0.02786  -0.02268  -0.01974
 Alpha virt. eigenvalues --   -0.01572  -0.01418  -0.00762  -0.00546  -0.00251
 Alpha virt. eigenvalues --   -0.00094   0.00168   0.00233   0.00981   0.00998
 Alpha virt. eigenvalues --    0.01556   0.01715   0.01860   0.02375   0.02657
 Alpha virt. eigenvalues --    0.02800   0.03007   0.03392   0.03500   0.03656
 Alpha virt. eigenvalues --    0.03971   0.04161   0.04462   0.05065   0.05152
 Alpha virt. eigenvalues --    0.05288   0.05637   0.05808   0.05984   0.06128
 Alpha virt. eigenvalues --    0.06376   0.06483   0.06995   0.07185   0.07400
 Alpha virt. eigenvalues --    0.07700   0.08220   0.08452   0.08755   0.09052
 Alpha virt. eigenvalues --    0.09326   0.09784   0.10286   0.10575   0.10635
 Alpha virt. eigenvalues --    0.11291   0.11498   0.12434   0.12689   0.12922
 Alpha virt. eigenvalues --    0.13367   0.13448   0.13894   0.14269   0.14508
 Alpha virt. eigenvalues --    0.14765   0.15355   0.15665   0.15789   0.16211
 Alpha virt. eigenvalues --    0.16564   0.16758   0.17300   0.17688   0.17758
 Alpha virt. eigenvalues --    0.18028   0.18760   0.19127   0.19430   0.19726
 Alpha virt. eigenvalues --    0.20459   0.20985   0.21134   0.21230   0.21338
 Alpha virt. eigenvalues --    0.21817   0.21999   0.22392   0.22964   0.23079
 Alpha virt. eigenvalues --    0.24107   0.24493   0.24747   0.24867   0.25209
 Alpha virt. eigenvalues --    0.25566   0.26355   0.27088   0.27278   0.27600
 Alpha virt. eigenvalues --    0.27617   0.27908   0.28538   0.28883   0.29054
 Alpha virt. eigenvalues --    0.29489   0.30279   0.31169   0.31189   0.32166
 Alpha virt. eigenvalues --    0.32971   0.33555   0.34200   0.34691   0.36227
 Alpha virt. eigenvalues --    0.36695   0.37413   0.38549   0.40529   0.41323
 Alpha virt. eigenvalues --    0.45214   0.47325   0.47480   0.48794   0.50921
 Alpha virt. eigenvalues --    0.52199   0.53134   0.53421   0.54096   0.54231
 Alpha virt. eigenvalues --    0.54466   0.55597   0.55939   0.56535   0.57360
 Alpha virt. eigenvalues --    0.57664   0.57989   0.58287   0.59107   0.59548
 Alpha virt. eigenvalues --    0.59983   0.60601   0.61258   0.62168   0.64139
 Alpha virt. eigenvalues --    0.64537   0.65244   0.65682   0.66396   0.67045
 Alpha virt. eigenvalues --    0.67903   0.69008   0.70239   0.70366   0.71719
 Alpha virt. eigenvalues --    0.72535   0.73562   0.74394   0.74983   0.75313
 Alpha virt. eigenvalues --    0.76314   0.77220   0.77901   0.79031   0.79617
 Alpha virt. eigenvalues --    0.80524   0.81422   0.82362   0.82883   0.83269
 Alpha virt. eigenvalues --    0.83959   0.84653   0.85122   0.85900   0.86356
 Alpha virt. eigenvalues --    0.87427   0.88002   0.88638   0.90013   0.90838
 Alpha virt. eigenvalues --    0.91620   0.92683   0.94042   0.95303   0.96000
 Alpha virt. eigenvalues --    0.96544   0.97055   0.98614   0.99005   1.00410
 Alpha virt. eigenvalues --    1.00586   1.01283   1.03230   1.04023   1.04588
 Alpha virt. eigenvalues --    1.04786   1.05774   1.07313   1.08442   1.08779
 Alpha virt. eigenvalues --    1.09160   1.11745   1.12519   1.12728   1.13219
 Alpha virt. eigenvalues --    1.14847   1.15919   1.17281   1.18270   1.19110
 Alpha virt. eigenvalues --    1.20143   1.20349   1.21652   1.21968   1.23390
 Alpha virt. eigenvalues --    1.23786   1.24585   1.25559   1.25766   1.26950
 Alpha virt. eigenvalues --    1.28581   1.29113   1.29278   1.29833   1.32470
 Alpha virt. eigenvalues --    1.32873   1.33496   1.34892   1.35538   1.35984
 Alpha virt. eigenvalues --    1.38195   1.39997   1.40791   1.42686   1.43267
 Alpha virt. eigenvalues --    1.45413   1.46088   1.47213   1.48731   1.49910
 Alpha virt. eigenvalues --    1.50617   1.51681   1.51871   1.54092   1.54189
 Alpha virt. eigenvalues --    1.54946   1.55873   1.58127   1.59597   1.60379
 Alpha virt. eigenvalues --    1.61495   1.61952   1.62578   1.63422   1.66088
 Alpha virt. eigenvalues --    1.67471   1.67673   1.68999   1.69309   1.69863
 Alpha virt. eigenvalues --    1.71550   1.71988   1.72467   1.73057   1.75278
 Alpha virt. eigenvalues --    1.76039   1.76611   1.77393   1.79208   1.80012
 Alpha virt. eigenvalues --    1.81268   1.81734   1.82031   1.82468   1.83412
 Alpha virt. eigenvalues --    1.83745   1.85536   1.86126   1.88786   1.89548
 Alpha virt. eigenvalues --    1.89912   1.90600   1.90749   1.91202   1.92245
 Alpha virt. eigenvalues --    1.92886   1.93226   1.94972   1.96221   1.96612
 Alpha virt. eigenvalues --    1.97111   1.97861   1.99535   2.00804   2.01464
 Alpha virt. eigenvalues --    2.01801   2.02515   2.03880   2.04626   2.05541
 Alpha virt. eigenvalues --    2.08570   2.10695   2.12040   2.13427   2.14369
 Alpha virt. eigenvalues --    2.16213   2.17006   2.17600   2.18897   2.21177
 Alpha virt. eigenvalues --    2.22690   2.24144   2.24573   2.25262   2.26280
 Alpha virt. eigenvalues --    2.28466   2.30344   2.30672   2.34346   2.37603
 Alpha virt. eigenvalues --    2.38690   2.39792   2.40750   2.41666   2.43315
 Alpha virt. eigenvalues --    2.44307   2.46601   2.46733   2.49335   2.50440
 Alpha virt. eigenvalues --    2.51638   2.52741   2.53890   2.55074   2.57146
 Alpha virt. eigenvalues --    2.59181   2.59510   2.62713   2.64813   2.65566
 Alpha virt. eigenvalues --    2.66551   2.67642   2.69333   2.70562   2.71476
 Alpha virt. eigenvalues --    2.75698   2.76522   2.77698   2.81855   2.83231
 Alpha virt. eigenvalues --    2.84485   2.85094   2.86763   2.87339   2.95104
 Alpha virt. eigenvalues --    3.00369   3.03268   3.04178   3.05967   3.06823
 Alpha virt. eigenvalues --    3.08118   3.11788   3.15915   3.20050   3.25144
 Alpha virt. eigenvalues --    3.29162   3.30583   3.30954   3.32045   3.32493
 Alpha virt. eigenvalues --    3.36308   3.48921   3.89555   4.07633   4.10025
 Alpha virt. eigenvalues --    4.13048   4.14223   4.16791   4.18731   4.24927
 Alpha virt. eigenvalues --    4.25293   4.27464   4.27907   4.32003   4.34162
 Alpha virt. eigenvalues --    4.35238   4.36143   4.38489   4.41494   4.44739
 Alpha virt. eigenvalues --    4.50177   4.65170   4.79952   5.62636   6.66467
          Condensed to atoms (all electrons):
               1          2          3          4          5          6
     1  Cl  17.429709  -0.017347   0.000862   0.000039   0.000048  -0.007270
     2  Cl  -0.017347  17.162893   0.001155   0.000000   0.000000   0.000109
     3  S    0.000862   0.001155  14.948298   0.000040   0.000249   0.001536
     4  F    0.000039   0.000000   0.000040   9.165693  -0.064709  -0.002344
     5  F    0.000048   0.000000   0.000249  -0.064709   9.189956  -0.002732
     6  O   -0.007270   0.000109   0.001536  -0.002344  -0.002732   8.068319
     7  O   -0.000102   0.004793   0.363221   0.000006   0.000003  -0.000568
     8  O    0.000100  -0.001956   0.286206  -0.000000  -0.000001   0.000505
     9  N   -0.170039   0.008091  -0.044636  -0.017252  -0.017793  -0.057375
    10  N    0.000700   0.000449   0.005416   0.035593  -0.001540  -0.094774
    11  N    0.209969  -0.002558   0.009590   0.002262  -0.000668   0.007528
    12  N    0.002995  -0.056506  -0.003022   0.000001   0.000013   0.000882
    13  C   -0.412065  -0.002577  -0.080494   0.008010   0.011946  -0.082306
    14  C    0.036040  -0.002830   0.025351  -0.001174  -0.006115   0.439225
    15  C   -0.035883   0.001911   0.005259  -0.091406  -0.014222   0.119846
    16  C    0.151008   0.206786   0.826606  -0.000583  -0.001400  -0.080849
    17  C    0.013555   0.188601   0.006905  -0.000973   0.004115   0.055096
    18  C   -0.469380   0.012817  -0.004754  -0.002279  -0.003862  -0.003497
    19  C   -0.109961  -1.017000  -0.827533  -0.000034   0.000083   0.005929
    20  C    0.143916   0.151907  -0.119290  -0.000030  -0.000325   0.004928
    21  C   -0.000529   0.000016   0.005670   0.196341   0.241943  -0.073766
    22  C   -0.058452   0.000648   0.001166   0.068271  -0.018699   0.045271
    23  C   -0.000047   0.004694  -0.449798   0.000001   0.000011   0.000128
    24  H   -0.004005   0.001209  -0.211665  -0.000889  -0.002448  -0.010345
    25  H    0.000951   0.067211  -0.074563  -0.000001  -0.000004  -0.000366
    26  H    0.006008   0.004674   0.001199   0.000003   0.000001   0.000219
    27  H    0.000421  -0.000008  -0.000243  -0.048706  -0.048072   0.003320
    28  H   -0.004268   0.000019  -0.000009   0.001133   0.001237   0.000420
    29  H   -0.000294   0.000003   0.000081  -0.004660   0.003215   0.000175
    30  H    0.000716  -0.000002   0.000044   0.004376  -0.001881  -0.000270
    31  H   -0.000021  -0.001958  -0.050953   0.000000   0.000000   0.000016
    32  H   -0.000090   0.000627   0.043257   0.000000   0.000001   0.000041
    33  H    0.000009   0.000277  -0.037144   0.000000   0.000004  -0.000005
    34  H    0.056869  -0.000261  -0.000683  -0.000281  -0.000932  -0.001065
               7          8          9         10         11         12
     1  Cl  -0.000102   0.000100  -0.170039   0.000700   0.209969   0.002995
     2  Cl   0.004793  -0.001956   0.008091   0.000449  -0.002558  -0.056506
     3  S    0.363221   0.286206  -0.044636   0.005416   0.009590  -0.003022
     4  F    0.000006  -0.000000  -0.017252   0.035593   0.002262   0.000001
     5  F    0.000003  -0.000001  -0.017793  -0.001540  -0.000668   0.000013
     6  O   -0.000568   0.000505  -0.057375  -0.094774   0.007528   0.000882
     7  O    8.862653  -0.182416   0.013071  -0.001394  -0.006061  -0.099620
     8  O   -0.182416   8.527194  -0.000125   0.000105  -0.000071  -0.113030
     9  N    0.013071  -0.000125   8.585038  -0.663150  -0.933589  -0.002186
    10  N   -0.001394   0.000105  -0.663150   7.728600   0.186822   0.002757
    11  N   -0.006061  -0.000071  -0.933589   0.186822   7.712767  -0.000941
    12  N   -0.099620  -0.113030  -0.002186   0.002757  -0.000941   8.150592
    13  C   -0.048257   0.026207  -0.570478   0.354666  -1.662600   0.009810
    14  C    0.014406  -0.010258  -0.297397   0.062569   0.512999  -0.002621
    15  C    0.005666  -0.000340   0.391278   0.281166  -0.045751   0.003995
    16  C   -0.390070  -0.013245   0.190938  -0.093512   0.172824  -1.363526
    17  C    0.656941  -0.061701  -0.349380   0.138368   0.229454   0.093878
    18  C   -0.058891   0.009505   0.370511  -0.207889   0.453047  -0.021985
    19  C   -0.278900   0.092134  -0.030219  -0.014857  -0.006058   0.790506
    20  C    0.043033  -0.000397   0.302463  -0.035748   0.177897   0.245839
    21  C   -0.000260  -0.000210  -0.191562   0.201606   0.085889   0.000943
    22  C    0.001466  -0.000088   0.039748  -0.283035  -0.070145   0.001101
    23  C   -0.369096  -0.107679  -0.003086   0.000442   0.002154  -0.151691
    24  H    0.025667  -0.004843   0.150772  -0.031788  -0.095959  -0.007675
    25  H    0.000862  -0.003541   0.003062  -0.000371  -0.000932   0.224859
    26  H    0.000525   0.000033   0.000582   0.000761  -0.002586  -0.001331
    27  H    0.000111   0.000000   0.004821  -0.088232   0.004824  -0.000186
    28  H   -0.000012   0.000002   0.013262   0.007922  -0.007850   0.000038
    29  H    0.000024  -0.000002  -0.000814  -0.011752   0.001131  -0.000020
    30  H   -0.000004  -0.000001  -0.009865  -0.006669   0.005727   0.000006
    31  H   -0.000504  -0.011025  -0.000094   0.000045   0.000045   0.009966
    32  H   -0.022189   0.002850  -0.000688   0.000050   0.000122  -0.001465
    33  H    0.004449   0.000634  -0.000221  -0.000037   0.000195  -0.004884
    34  H    0.000142  -0.000022   0.011512  -0.018920   0.264755  -0.000371
              13         14         15         16         17         18
     1  Cl  -0.412065   0.036040  -0.035883   0.151008   0.013555  -0.469380
     2  Cl  -0.002577  -0.002830   0.001911   0.206786   0.188601   0.012817
     3  S   -0.080494   0.025351   0.005259   0.826606   0.006905  -0.004754
     4  F    0.008010  -0.001174  -0.091406  -0.000583  -0.000973  -0.002279
     5  F    0.011946  -0.006115  -0.014222  -0.001400   0.004115  -0.003862
     6  O   -0.082306   0.439225   0.119846  -0.080849   0.055096  -0.003497
     7  O   -0.048257   0.014406   0.005666  -0.390070   0.656941  -0.058891
     8  O    0.026207  -0.010258  -0.000340  -0.013245  -0.061701   0.009505
     9  N   -0.570478  -0.297397   0.391278   0.190938  -0.349380   0.370511
    10  N    0.354666   0.062569   0.281166  -0.093512   0.138368  -0.207889
    11  N   -1.662600   0.512999  -0.045751   0.172824   0.229454   0.453047
    12  N    0.009810  -0.002621   0.003995  -1.363526   0.093878  -0.021985
    13  C   35.007998  -1.752758  -0.399862  -9.217265   1.790125 -11.980744
    14  C   -1.752758   7.820022  -0.225836  -0.239355  -0.548894   0.354892
    15  C   -0.399862  -0.225836   8.757060  -0.125925   0.016857   0.212031
    16  C   -9.217265  -0.239355  -0.125925  33.984018  -4.328896   2.775584
    17  C    1.790125  -0.548894   0.016857  -4.328896  22.877540  -6.765682
    18  C  -11.980744   0.354892   0.212031   2.775584  -6.765682  21.018490
    19  C    3.149967   0.158228  -0.015703 -10.127193 -10.876374   1.691315
    20  C   -7.413783   0.184781   0.079485  -5.542944   2.704605  -0.920490
    21  C   -0.127724  -0.098287  -0.122117  -0.012664   0.023587   0.010386
    22  C    0.502629  -0.656263  -3.064349  -0.081753   0.037101  -0.286120
    23  C    0.074218   0.001853  -0.000231   0.070029  -0.416410   0.041264
    24  H   -0.272065  -0.138561  -0.022481  -0.018612   0.567994  -0.064519
    25  H   -0.007490  -0.000927   0.000320  -0.039096  -0.009037   0.006196
    26  H    0.140556  -0.003423   0.000253   0.116445   0.090082  -0.007348
    27  H   -0.031252   0.067107  -0.009780   0.004716  -0.000666   0.007068
    28  H    0.037688  -0.024260  -0.200003  -0.004227  -0.000987  -0.014752
    29  H    0.006298  -0.003348  -0.035477  -0.000377  -0.000127  -0.002785
    30  H   -0.007841  -0.003590  -0.042339   0.000619   0.002477   0.001227
    31  H    0.000397  -0.000444   0.000018   0.007260  -0.023494   0.002756
    32  H   -0.000325  -0.000044  -0.000013  -0.018291   0.000903   0.004684
    33  H   -0.001856   0.000898  -0.000267   0.004535   0.012656  -0.001141
    34  H   -0.140882   0.055118   0.020600   0.024091  -0.025618   0.058316
              19         20         21         22         23         24
     1  Cl  -0.109961   0.143916  -0.000529  -0.058452  -0.000047  -0.004005
     2  Cl  -1.017000   0.151907   0.000016   0.000648   0.004694   0.001209
     3  S   -0.827533  -0.119290   0.005670   0.001166  -0.449798  -0.211665
     4  F   -0.000034  -0.000030   0.196341   0.068271   0.000001  -0.000889
     5  F    0.000083  -0.000325   0.241943  -0.018699   0.000011  -0.002448
     6  O    0.005929   0.004928  -0.073766   0.045271   0.000128  -0.010345
     7  O   -0.278900   0.043033  -0.000260   0.001466  -0.369096   0.025667
     8  O    0.092134  -0.000397  -0.000210  -0.000088  -0.107679  -0.004843
     9  N   -0.030219   0.302463  -0.191562   0.039748  -0.003086   0.150772
    10  N   -0.014857  -0.035748   0.201606  -0.283035   0.000442  -0.031788
    11  N   -0.006058   0.177897   0.085889  -0.070145   0.002154  -0.095959
    12  N    0.790506   0.245839   0.000943   0.001101  -0.151691  -0.007675
    13  C    3.149967  -7.413783  -0.127724   0.502629   0.074218  -0.272065
    14  C    0.158228   0.184781  -0.098287  -0.656263   0.001853  -0.138561
    15  C   -0.015703   0.079485  -0.122117  -3.064349  -0.000231  -0.022481
    16  C  -10.127193  -5.542944  -0.012664  -0.081753   0.070029  -0.018612
    17  C  -10.876374   2.704605   0.023587   0.037101  -0.416410   0.567994
    18  C    1.691315  -0.920490   0.010386  -0.286120   0.041264  -0.064519
    19  C   27.022415  -3.565037   0.000264  -0.023222   0.374207  -0.182527
    20  C   -3.565037  18.306167   0.003182   0.003189  -0.011984   0.167955
    21  C    0.000264   0.003182   4.765288  -0.004965   0.000692  -0.023002
    22  C   -0.023222   0.003189  -0.004965   9.245630  -0.000560   0.007500
    23  C    0.374207  -0.011984   0.000692  -0.000560   6.531380  -0.114293
    24  H   -0.182527   0.167955  -0.023002   0.007500  -0.114293   0.974996
    25  H    0.012283   0.025559  -0.000090  -0.000033   0.038585   0.005644
    26  H   -0.134225   0.068203  -0.000026   0.001582  -0.000599   0.001036
    27  H    0.000016  -0.000078   0.404732  -0.021457   0.000056   0.000541
    28  H    0.000982  -0.003863  -0.001200   0.557732  -0.000036   0.000752
    29  H   -0.000232  -0.000345   0.002724   0.392200   0.000015  -0.000323
    30  H   -0.000324   0.000861   0.012481   0.377080   0.000000  -0.000730
    31  H    0.024014   0.001049   0.000014  -0.000001   0.368658   0.000471
    32  H    0.002662  -0.002950   0.000004  -0.000141   0.345883  -0.007538
    33  H   -0.009135  -0.001088   0.000016  -0.000073   0.365198   0.004089
    34  H   -0.014180   0.037232  -0.006099  -0.071473   0.000296   0.002274
              25         26         27         28         29         30
     1  Cl   0.000951   0.006008   0.000421  -0.004268  -0.000294   0.000716
     2  Cl   0.067211   0.004674  -0.000008   0.000019   0.000003  -0.000002
     3  S   -0.074563   0.001199  -0.000243  -0.000009   0.000081   0.000044
     4  F   -0.000001   0.000003  -0.048706   0.001133  -0.004660   0.004376
     5  F   -0.000004   0.000001  -0.048072   0.001237   0.003215  -0.001881
     6  O   -0.000366   0.000219   0.003320   0.000420   0.000175  -0.000270
     7  O    0.000862   0.000525   0.000111  -0.000012   0.000024  -0.000004
     8  O   -0.003541   0.000033   0.000000   0.000002  -0.000002  -0.000001
     9  N    0.003062   0.000582   0.004821   0.013262  -0.000814  -0.009865
    10  N   -0.000371   0.000761  -0.088232   0.007922  -0.011752  -0.006669
    11  N   -0.000932  -0.002586   0.004824  -0.007850   0.001131   0.005727
    12  N    0.224859  -0.001331  -0.000186   0.000038  -0.000020   0.000006
    13  C   -0.007490   0.140556  -0.031252   0.037688   0.006298  -0.007841
    14  C   -0.000927  -0.003423   0.067107  -0.024260  -0.003348  -0.003590
    15  C    0.000320   0.000253  -0.009780  -0.200003  -0.035477  -0.042339
    16  C   -0.039096   0.116445   0.004716  -0.004227  -0.000377   0.000619
    17  C   -0.009037   0.090082  -0.000666  -0.000987  -0.000127   0.002477
    18  C    0.006196  -0.007348   0.007068  -0.014752  -0.002785   0.001227
    19  C    0.012283  -0.134225   0.000016   0.000982  -0.000232  -0.000324
    20  C    0.025559   0.068203  -0.000078  -0.003863  -0.000345   0.000861
    21  C   -0.000090  -0.000026   0.404732  -0.001200   0.002724   0.012481
    22  C   -0.000033   0.001582  -0.021457   0.557732   0.392200   0.377080
    23  C    0.038585  -0.000599   0.000056  -0.000036   0.000015   0.000000
    24  H    0.005644   0.001036   0.000541   0.000752  -0.000323  -0.000730
    25  H    0.397821   0.000142  -0.000015  -0.000007   0.000001  -0.000001
    26  H    0.000142   0.539577  -0.000018   0.000038   0.000003  -0.000004
    27  H   -0.000015  -0.000018   0.529593  -0.000324  -0.000979  -0.000162
    28  H   -0.000007   0.000038  -0.000324   0.503058  -0.019031  -0.022015
    29  H    0.000001   0.000003  -0.000979  -0.019031   0.445861  -0.021167
    30  H   -0.000001  -0.000004  -0.000162  -0.022015  -0.021167   0.455367
    31  H    0.002267  -0.000037  -0.000006   0.000000   0.000000  -0.000000
    32  H   -0.006176  -0.000056   0.000001  -0.000002   0.000004  -0.000001
    33  H    0.001278   0.000001   0.000022   0.000001  -0.000005   0.000001
    34  H    0.000170   0.000124   0.000471  -0.007588   0.001199   0.001065
              31         32         33         34
     1  Cl  -0.000021  -0.000090   0.000009   0.056869
     2  Cl  -0.001958   0.000627   0.000277  -0.000261
     3  S   -0.050953   0.043257  -0.037144  -0.000683
     4  F    0.000000   0.000000   0.000000  -0.000281
     5  F    0.000000   0.000001   0.000004  -0.000932
     6  O    0.000016   0.000041  -0.000005  -0.001065
     7  O   -0.000504  -0.022189   0.004449   0.000142
     8  O   -0.011025   0.002850   0.000634  -0.000022
     9  N   -0.000094  -0.000688  -0.000221   0.011512
    10  N    0.000045   0.000050  -0.000037  -0.018920
    11  N    0.000045   0.000122   0.000195   0.264755
    12  N    0.009966  -0.001465  -0.004884  -0.000371
    13  C    0.000397  -0.000325  -0.001856  -0.140882
    14  C   -0.000444  -0.000044   0.000898   0.055118
    15  C    0.000018  -0.000013  -0.000267   0.020600
    16  C    0.007260  -0.018291   0.004535   0.024091
    17  C   -0.023494   0.000903   0.012656  -0.025618
    18  C    0.002756   0.004684  -0.001141   0.058316
    19  C    0.024014   0.002662  -0.009135  -0.014180
    20  C    0.001049  -0.002950  -0.001088   0.037232
    21  C    0.000014   0.000004   0.000016  -0.006099
    22  C   -0.000001  -0.000141  -0.000073  -0.071473
    23  C    0.368658   0.345883   0.365198   0.000296
    24  H    0.000471  -0.007538   0.004089   0.002274
    25  H    0.002267  -0.006176   0.001278   0.000170
    26  H   -0.000037  -0.000056   0.000001   0.000124
    27  H   -0.000006   0.000001   0.000022   0.000471
    28  H    0.000000  -0.000002   0.000001  -0.007588
    29  H    0.000000   0.000004  -0.000005   0.001199
    30  H   -0.000000  -0.000001   0.000001   0.001065
    31  H    0.467849  -0.031041  -0.015103  -0.000001
    32  H   -0.031041   0.470898  -0.023508   0.000002
    33  H   -0.015103  -0.023508   0.452932  -0.000012
    34  H   -0.000001   0.000002  -0.000012   0.344831
 Mulliken charges:
               1
     1  Cl   0.235840
     2  Cl   0.284112
     3  S    1.372674
     4  F   -0.246447
     5  F   -0.267421
     6  O   -0.335957
     7  O   -0.538692
     8  O   -0.434524
     9  N    0.274800
    10  N   -0.454369
    11  N   -0.204233
    12  N   -0.707121
    13  C   -0.907890
    14  C    0.282896
    15  C    0.556239
    16  C   -0.835676
    17  C   -0.102601
    18  C   -0.213975
    19  C   -0.092292
    20  C    0.966100
    21  C    0.706725
    22  C   -0.641483
    23  C   -0.594254
    24  H    0.303367
    25  H    0.355439
    26  H    0.177606
    27  H    0.222364
    28  H    0.186153
    29  H    0.248806
    30  H    0.254820
    31  H    0.249856
    32  H    0.242529
    33  H    0.247286
    34  H    0.409323
 Sum of Mulliken charges =   1.00000
 Mulliken charges with hydrogens summed into heavy atoms:
               1
     1  Cl   0.235840
     2  Cl   0.284112
     3  S    1.372674
     4  F   -0.246447
     5  F   -0.267421
     6  O   -0.335957
     7  O   -0.538692
     8  O   -0.434524
     9  N    0.274800
    10  N   -0.454369
    11  N    0.205090
    12  N   -0.351682
    13  C   -0.907890
    14  C    0.282896
    15  C    0.556239
    16  C   -0.835676
    17  C    0.200766
    18  C   -0.213975
    19  C   -0.092292
    20  C    1.143706
    21  C    0.929089
    22  C    0.048296
    23  C    0.145418
 Electronic spatial extent (au):  <R**2>=          10427.0469
 Charge=              1.0000 electrons
 Dipole moment (field-independent basis, Debye):
    X=             -5.5307    Y=              1.9738    Z=              6.9964  Tot=              9.1342
 Quadrupole moment (field-independent basis, Debye-Ang):
   XX=            -72.2415   YY=           -130.7421   ZZ=           -144.1299
   XY=            -12.8507   XZ=             -0.4508   YZ=             -3.6512
 Traceless Quadrupole moment (field-independent basis, Debye-Ang):
   XX=             43.4630   YY=            -15.0376   ZZ=            -28.4254
   XY=            -12.8507   XZ=             -0.4508   YZ=             -3.6512
 Octapole moment (field-independent basis, Debye-Ang**2):
  XXX=            -86.7322  YYY=            -28.0422  ZZZ=             28.0036  XYY=             14.2967
  XXY=            -43.0777  XXZ=             97.7159  XZZ=            -49.5230  YZZ=            -10.8942
  YYZ=             35.4328  XYZ=            -73.4231
 Hexadecapole moment (field-independent basis, Debye-Ang**3):
 XXXX=          -6778.5406 YYYY=          -3748.5434 ZZZZ=           -662.2248 XXXY=           -256.2432
 XXXZ=            -65.6495 YYYX=            -28.7243 YYYZ=            -90.5446 ZZZX=            -26.2466
 ZZZY=             -9.9811 XXYY=          -1719.5178 XXZZ=          -1293.2838 YYZZ=           -751.8760
 XXYZ=            -55.7828 YYXZ=            155.9217 ZZXY=            -16.3594
 N-N= 2.511381087554D+03 E-N=-1.062929281052D+04  KE= 2.373975646503D+03
 Merz-Kollman atomic radii used.

 **********************************************************************

            Electrostatic Properties Using The SCF Density

 **********************************************************************

       Atomic Center    1 is at  -0.663810  3.800957 -0.169587
       Atomic Center    2 is at   4.356339  1.975912  0.039790
       Atomic Center    3 is at   2.748268 -2.499194  0.061751
       Atomic Center    4 is at  -5.405884 -1.210316 -0.687908
       Atomic Center    5 is at  -4.217333 -2.460275  0.525734
       Atomic Center    6 is at  -1.649686 -0.819762 -1.949948
       Atomic Center    7 is at   1.352255 -2.587462  0.430193
       Atomic Center    8 is at   3.201790 -2.979810 -1.203991
       Atomic Center    9 is at  -1.475753  0.941234 -0.323748
       Atomic Center   10 is at  -3.265182 -0.509437 -0.237107
       Atomic Center   11 is at  -2.303148  1.218733  0.796509
       Atomic Center   12 is at   3.131621 -0.773587  0.065420
       Atomic Center   13 is at  -0.046436  1.159375 -0.147594
       Atomic Center   14 is at  -2.003744 -0.247718 -0.974155
       Atomic Center   15 is at  -3.403093  0.406689  0.808804
       Atomic Center   16 is at   2.222375  0.284894 -0.018731
       Atomic Center   17 is at   0.827613  0.073438 -0.069164
       Atomic Center   18 is at   0.420289  2.481353 -0.127811
       Atomic Center   19 is at   2.681472  1.640559 -0.025535
       Atomic Center   20 is at   1.800851  2.715170 -0.077782
       Atomic Center   21 is at  -4.147858 -1.666710 -0.558674
       Atomic Center   22 is at  -4.499843  0.511313  1.770958
       Atomic Center   23 is at   3.757722 -3.067235  1.340363
       Atomic Center   24 is at   0.428149 -0.956578 -0.057134
       Atomic Center   25 is at   4.121012 -0.512369 -0.094772
       Atomic Center   26 is at   2.180943  3.746138 -0.082691
       Atomic Center   27 is at  -3.786726 -2.212609 -1.474530
       Atomic Center   28 is at  -4.348553  1.275050  2.558338
       Atomic Center   29 is at  -4.693688 -0.441541  2.314479
       Atomic Center   30 is at  -5.469497  0.768014  1.283757
       Atomic Center   31 is at   4.766904 -3.382282  1.014040
       Atomic Center   32 is at   3.928031 -2.353130  2.164098
       Atomic Center   33 is at   3.350417 -3.963591  1.848795
       Atomic Center   34 is at  -2.117026  2.059462  1.362076
    1716 points will be used for fitting atomic charges
 Fitting point charges to electrostatic potential
 The dipole moment will be constrained to the correct value
 Charges from ESP fit, RMS=   0.00184 RRMS=   0.01885:
 ESP charges:
               1
     1  Cl   0.006038
     2  Cl   0.026459
     3  S    1.185469
     4  F   -0.174680
     5  F   -0.183913
     6  O   -0.434204
     7  O   -0.551957
     8  O   -0.466549
     9  N   -0.273884
    10  N   -0.417476
    11  N   -0.391402
    12  N   -0.788290
    13  C    0.458057
    14  C    0.746374
    15  C    0.658452
    16  C    0.738201
    17  C   -0.643180
    18  C   -0.241747
    19  C   -0.341892
    20  C    0.115340
    21  C    0.444186
    22  C   -0.593834
    23  C   -0.543164
    24  H    0.315669
    25  H    0.375534
    26  H    0.147453
    27  H    0.166015
    28  H    0.209943
    29  H    0.230900
    30  H    0.230813
    31  H    0.204536
    32  H    0.188688
    33  H    0.217253
    34  H    0.380794
 Sum of ESP charges =   1.00000
 ESP charges with hydrogens summed into heavy atoms:
               1
     1  Cl   0.006038
     2  Cl   0.026459
     3  S    1.185469
     4  F   -0.174680
     5  F   -0.183913
     6  O   -0.434204
     7  O   -0.551957
     8  O   -0.466549
     9  N   -0.273884
    10  N   -0.417476
    11  N   -0.010609
    12  N   -0.412757
    13  C    0.458057
    14  C    0.746374
    15  C    0.658452
    16  C    0.738201
    17  C   -0.327510
    18  C   -0.241747
    19  C   -0.341892
    20  C    0.262793
    21  C    0.610201
    22  C    0.077822
    23  C    0.067312
 Charge=   1.00000 Dipole=    -5.5307     1.9738     6.9964 Tot=     9.1342
 -----------------------------------------------------------------

              Electrostatic Properties (Atomic Units)

 -----------------------------------------------------------------
    Center     Electric         -------- Electric Field --------
               Potential          X             Y             Z
 -----------------------------------------------------------------
    1 Atom    -64.231905
    2 Atom    -64.245375
    3 Atom    -58.810145
    4 Atom    -26.362473
    5 Atom    -26.362871
    6 Atom    -22.146600
    7 Atom    -22.193613
    8 Atom    -22.201994
    9 Atom    -18.077837
   10 Atom    -18.083084
   11 Atom    -18.047358
   12 Atom    -18.182067
   13 Atom    -14.533174
   14 Atom    -14.406796
   15 Atom    -14.409429
   16 Atom    -14.534610
   17 Atom    -14.591362
   18 Atom    -14.537562
   19 Atom    -14.539399
   20 Atom    -14.586523
   21 Atom    -14.351994
   22 Atom    -14.539489
   23 Atom    -14.585588
   24 Atom     -0.959333
   25 Atom     -0.881273
   26 Atom     -0.960252
   27 Atom     -0.895840
   28 Atom     -0.917573
   29 Atom     -0.914428
   30 Atom     -0.913965
   31 Atom     -0.958000
   32 Atom     -0.954852
   33 Atom     -0.952510
   34 Atom     -0.771011
 -----------------------------------------------------------------
 Calling FoFJK, ICntrl=      2127 FMM=F ISym2X=0 I1Cent= 0 IOpClX= 0 NMat=1 NMatS=1 NMatT=0.
 ***** Axes restored to original set *****
 -------------------------------------------------------------------
 Center     Atomic                   Forces (Hartrees/Bohr)
 Number     Number              X              Y              Z
 -------------------------------------------------------------------
      1       17          -0.013264492    0.017324465   -0.001133091
      2       17           0.018768052    0.001832820    0.000423477
      3       16          -0.001678883    0.045983278   -0.005942808
      4        9          -0.006397017    0.009388731   -0.014400178
      5        9           0.013309419   -0.011366430    0.005460765
      6        8           0.010940884   -0.007691983   -0.006631922
      7        8          -0.016933872   -0.009162380    0.012072464
      8        8           0.013678531   -0.020383424   -0.029007941
      9        7          -0.002419453   -0.025179620    0.007734822
     10        7           0.016447828    0.022892312    0.011826947
     11        7          -0.030885023   -0.034226655   -0.012826429
     12        7           0.006596790    0.004165453    0.004143811
     13        6          -0.001814342    0.002296822   -0.005423588
     14        6          -0.026229262    0.030348221    0.028245667
     15        6           0.042824803    0.002341924   -0.023550893
     16        6          -0.004362807   -0.002005529    0.002712074
     17        6          -0.007762693   -0.004769046   -0.001796441
     18        6           0.016006458   -0.013220789   -0.002034904
     19        6          -0.014702716   -0.011647412   -0.000977878
     20        6          -0.006506207    0.004135476    0.001243535
     21        6           0.003955958    0.007808188    0.002670296
     22        6          -0.028807295    0.000216638    0.020688532
     23        6           0.039621161   -0.025135331    0.049697878
     24        1           0.006072696    0.017623462   -0.001933121
     25        1          -0.014859569   -0.009778623    0.000739359
     26        1          -0.002959049   -0.009955939    0.000584513
     27        1          -0.003541189    0.012591251    0.016905868
     28        1           0.006384091   -0.003984195   -0.010244054
     29        1           0.006119508    0.006042123   -0.010185500
     30        1           0.012117336   -0.003707791   -0.000634240
     31        1          -0.009373952    0.006448688   -0.008822157
     32        1          -0.008756111    0.003621871   -0.010072653
     33        1          -0.007026649    0.005987561   -0.012076754
     34        1          -0.004562935   -0.008834136   -0.007455456
 -------------------------------------------------------------------
 Cartesian Forces:  Max     0.049697878 RMS     0.015396375

 GradGradGradGradGradGradGradGradGradGradGradGradGradGradGradGradGradGrad
 Berny optimization.
 FormGI is forming the generalized inverse of G from B-inverse, IUseBI=4.
 Internal  Forces:  Max     0.050452511 RMS     0.010111022
 Search for a local minimum.
 Step number   1 out of a maximum of  150
 All quantities printed in internal units (Hartrees-Bohrs-Radians)
 Mixed Optimization -- RFO/linear search
 Second derivative matrix not updated -- first step.
 ITU=  0
     Eigenvalues ---    0.00401   0.00494   0.00817   0.00897   0.00944
     Eigenvalues ---    0.01009   0.01040   0.01259   0.01359   0.01442
     Eigenvalues ---    0.01678   0.01719   0.01750   0.01779   0.01787
     Eigenvalues ---    0.01845   0.01947   0.02032   0.02067   0.02093
     Eigenvalues ---    0.02110   0.02152   0.02375   0.05488   0.05794
     Eigenvalues ---    0.06947   0.07213   0.07482   0.08248   0.09479
     Eigenvalues ---    0.10503   0.12466   0.15482   0.15733   0.15999
     Eigenvalues ---    0.16000   0.16000   0.16000   0.16000   0.16000
     Eigenvalues ---    0.16000   0.16000   0.16000   0.17504   0.18395
     Eigenvalues ---    0.22080   0.22783   0.22991   0.23296   0.23962
     Eigenvalues ---    0.23977   0.24528   0.24704   0.24889   0.24962
     Eigenvalues ---    0.24984   0.24992   0.24999   0.25000   0.25000
     Eigenvalues ---    0.25000   0.28838   0.30992   0.32064   0.32184
     Eigenvalues ---    0.32804   0.32813   0.32886   0.32981   0.33014
     Eigenvalues ---    0.33154   0.33309   0.33387   0.33814   0.34787
     Eigenvalues ---    0.34907   0.35989   0.36626   0.37398   0.39267
     Eigenvalues ---    0.40432   0.41316   0.41916   0.42748   0.43708
     Eigenvalues ---    0.44642   0.44650   0.45681   0.45966   0.46884
     Eigenvalues ---    0.49417   0.55978   0.56213   0.97515   1.06547
     Eigenvalues ---    1.12611
 RFO step:  Lambda=-4.88493552D-02 EMin= 4.00858004D-03
 Linear search not attempted -- first point.
 Maximum step size (   0.300) exceeded in Quadratic search.
    -- Step size scaled by   0.813
 Iteration  1 RMS(Cart)=  0.11042047 RMS(Int)=  0.00369373
 Iteration  2 RMS(Cart)=  0.00615423 RMS(Int)=  0.00033253
 Iteration  3 RMS(Cart)=  0.00001798 RMS(Int)=  0.00033227
 Iteration  4 RMS(Cart)=  0.00000002 RMS(Int)=  0.00033227
 Variable       Old X    -DE/DX   Delta X   Delta X   Delta X     New X
                                 (Linear)    (Quad)   (Total)
    R1        3.22826   0.02183   0.00000   0.04458   0.04458   3.27284
    R2        3.23022   0.01877   0.00000   0.03844   0.03844   3.26866
    R3        2.73351   0.01998   0.00000   0.01585   0.01585   2.74936
    R4        2.69826   0.03692   0.00000   0.02692   0.02692   2.72518
    R5        3.34043  -0.00924   0.00000  -0.02227  -0.02227   3.31816
    R6        3.26027   0.02533   0.00000   0.05431   0.05431   3.31458
    R7        2.54070   0.01056   0.00000   0.01404   0.01404   2.55474
    R8        2.54273   0.01042   0.00000   0.01391   0.01391   2.55664
    R9        2.23975   0.01244   0.00000   0.00860   0.00860   2.24836
   R10        2.68352  -0.01488   0.00000  -0.02527  -0.02535   2.65817
   R11        2.75250  -0.00950   0.00000  -0.01826  -0.01826   2.73424
   R12        2.74850  -0.03543   0.00000  -0.06413  -0.06408   2.68443
   R13        2.80480  -0.02580   0.00000  -0.05207  -0.05198   2.75283
   R14        2.64037  -0.04360   0.00000  -0.07160  -0.07159   2.56878
   R15        2.81677  -0.02094   0.00000  -0.04446  -0.04446   2.77232
   R16        2.58378  -0.05045   0.00000  -0.07514  -0.07523   2.50855
   R17        1.94681  -0.01213   0.00000  -0.02069  -0.02069   1.92613
   R18        2.64169  -0.00045   0.00000  -0.00072  -0.00072   2.64097
   R19        1.95730  -0.01678   0.00000  -0.02913  -0.02913   1.92817
   R20        2.63843  -0.00455   0.00000  -0.00728  -0.00729   2.63115
   R21        2.64956  -0.00237   0.00000  -0.00380  -0.00380   2.64576
[...]
 171,0.00435823,0.01240427,-0.00134244,-0.00005184,0.00005378,-0.000015
 09,0.00008455,0.00009436,-0.00003729,0.00005603,-0.00007527,0.00007591
 ,-0.00005530,-0.00003933,0.00001602,0.00001670,0.00002729,-0.00002156,
 0.00102872,0.00124538,-0.00007292,-0.11326172,-0.23226761,0.05813641,0
 .00000295,-0.00001142,-0.00000204,-0.00001649,0.00002648,-0.00001486,0
 .00000055,-0.00000670,-0.00000739,0.00000818,-0.00000161,-0.00000107,-
 0.00008291,-0.00012653,0.00004068,-0.00518438,-0.01012763,0.00466840,0
 .12144615,0.24731955,-0.00002640,0.00002611,-0.00001427,0.00003237,0.0
 0001350,-0.00000531,-0.00002991,0.00005765,0.00003747,-0.00042130,-0.0
 0026912,0.00037155,-0.00097190,-0.00052431,0.00142672,-0.00032171,-0.0
 0008484,-0.00017612,0.00001386,-0.00001982,-0.00001301,0.00001328,-0.0
 0001397,-0.00002599,0.00075458,-0.00111517,-0.00114908,-0.00104576,-0.
 00163877,-0.00001483,-0.00078776,-0.00011327,-0.00030647,0.00003904,-0
 .00003235,0.00000484,-0.00020575,-0.00020430,0.00002728,0.00144280,0.0
 0017408,0.00089552,0.00901939,0.01664704,-0.00596522,-0.00001630,0.000
 02109,0.00000179,0.00006610,0.00007276,-0.00004070,0.00009470,-0.00005
 028,0.00006483,-0.00002963,-0.00002991,0.00001335,-0.00000711,0.000039
 30,-0.00002064,0.00264533,0.00173305,-0.00173269,0.03821920,0.05698889
 ,-0.06503982,0.00000201,-0.00000475,-0.00000220,-0.00001937,0.00001880
 ,-0.00000204,0.00000102,-0.00000606,-0.00000222,0.00001027,-0.00000220
 ,-0.00000214,-0.00012237,-0.00014320,0.00006237,-0.01393057,-0.0213090
 7,0.00956336,-0.04320430,-0.06350183,0.06685653,0.00015096,-0.00007944
 ,0.00004528,-0.00000626,-0.00000522,0.00000530,-0.00002244,0.00003677,
 0.00000420,-0.00041127,-0.00050998,-0.00094352,-0.00018165,-0.00006513
 ,0.00013385,0.00021116,0.00006767,-0.00000641,0.00001042,-0.00000633,-
 0.00000140,0.00001159,-0.00001078,-0.00001098,-0.00060038,-0.00114946,
 0.00034875,0.00141225,-0.00174178,-0.00096580,0.00014623,0.00212575,0.
 00299590,0.00003236,-0.00003438,0.00001612,-0.00000257,-0.00006567,0.0
 0043357,-0.00112919,-0.00048138,0.00002049,-0.02362122,0.01514779,-0.0
 1202584,-0.00005964,-0.00003701,0.00000821,0.00009889,-0.00003553,-0.0
 0000547,-0.00027243,0.00026942,-0.00005757,-0.00001037,0.00002005,-0.0
 0000923,0.00003785,-0.00007167,-0.00001309,0.00062337,0.00111267,0.000
 25097,-0.14552496,0.09963204,-0.08989006,0.00000165,-0.00000265,0.0000
 0016,0.00000362,0.00000537,0.00000945,-0.00000267,-0.00000327,-0.00000
 026,-0.00001680,-0.00000734,-0.00000490,-0.00001555,0.00001330,0.00000
 154,-0.00479909,0.00410099,-0.00324848,0.01161798,-0.00987650,0.008588
 52,0.16216536,0.00004499,-0.00005740,0.00001100,0.00000663,-0.00000315
 ,-0.00000022,0.00001367,0.00005616,0.00000775,-0.00057811,0.00072699,0
 .00096141,-0.00045223,0.00033229,0.00039536,-0.00019381,-0.00002086,0.
 00002131,-0.00001199,-0.00001700,-0.00000060,0.00000008,-0.00001429,-0
 .00001058,0.00001156,-0.00063965,-0.00026582,-0.00052822,0.00067910,-0
 .00079865,-0.00125497,-0.00019940,0.00021595,0.00001983,-0.00004071,0.
 00001518,-0.00007987,0.00011485,-0.00004279,0.00076207,0.00036116,0.00
 009856,0.00370116,-0.00504452,0.00283173,-0.00003041,0.00001305,-0.000
 01243,-0.00000213,-0.00001869,0.00001974,-0.00004223,0.00005478,-0.000
 06540,-0.00001087,0.00000210,-0.00000004,0.00002064,-0.00000882,0.0000
 1762,0.00197283,-0.00110909,-0.00055324,0.10067845,-0.13632190,0.08274
 615,-0.00000136,-0.00000515,-0.00000110,0.00000237,0.00000021,0.000000
 19,-0.00000009,0.00000027,-0.00000128,-0.00000371,0.00000225,0.0000020
 5,-0.00005912,0.00002104,-0.00000734,-0.01193609,0.01102544,-0.0079687
 6,0.01669980,-0.01463916,0.01353236,-0.10891822,0.14460492,-0.00006135
 ,0.00006031,-0.00003347,0.00006945,0.00002565,-0.00001157,-0.00004966,
 0.00012004,0.00002180,-0.00115343,0.00124362,-0.00101648,-0.00032094,0
 .00016564,-0.00025410,-0.00012038,-0.00015601,-0.00027850,0.00002317,-
 0.00004124,-0.00000091,0.00002165,-0.00003062,-0.00002572,0.00127902,0
 .00020573,-0.00108303,-0.00118296,-0.00008890,-0.00177051,0.00133666,0
 .00021969,-0.00141981,0.00006096,-0.00007775,0.00002987,-0.00037428,0.
 00014279,-0.00047908,0.00058163,0.00065863,0.00073449,0.01269369,-0.01
 321143,0.01473882,-0.00002686,0.00010689,-0.00004743,-0.00005818,0.000
 07449,-0.00001292,0.00028400,-0.00021322,0.00006205,-0.00005753,-0.000
 07935,0.00002740,-0.00002685,0.00009771,-0.00000243,0.00251273,-0.0021
 8006,0.00102486,-0.09008905,0.08434205,-0.12587938,0.00000500,-0.00001
 014,-0.00000324,-0.00002540,0.00001702,-0.00001459,-0.00000127,-0.0000
 0370,-0.00000694,0.00002196,0.00000220,0.00000276,-0.00015528,0.000189
 32,-0.00012615,-0.01420382,0.01576162,-0.01105415,-0.00566521,0.004021
 74,-0.00458428,0.09456406,-0.09096778,0.13166745,0.00004837,-0.0000204
 2,0.00001170,0.00002456,-0.00000539,0.00000005,-0.01794223,-0.01116885
 ,0.00346027,0.00000349,0.00000505,0.00000199,0.00000764,0.00000978,-0.
 00000384,-0.00001267,0.00004192,0.00003400,-0.00306302,0.00140915,-0.0
 0300115,0.00277488,0.00124587,0.00066432,0.00003123,0.00001405,0.00002
 479,0.00000799,0.00001894,0.00002829,0.00002472,0.00002113,0.00001381,
 0.00207393,0.00040559,0.00053215,0.00002259,0.00001945,-0.00001377,0.0
 0001011,-0.00006567,-0.00007481,-0.00001661,-0.00001977,-0.00001943,-0
 .00022928,0.00042637,-0.00002545,0.00008312,-0.00018373,0.00010178,0.0
 0000748,0.00001530,-0.00003099,0.00008235,-0.00014592,-0.00001984,-0.0
 0004827,0.00002021,-0.00002052,-0.00001784,-0.00002275,-0.00000481,0.0
 0000405,0.00000175,0.00000192,-0.25195055,-0.12396841,0.02931493,0.000
 09463,-0.00010253,-0.00004986,-0.00036851,0.00128256,-0.00049691,0.000
 00671,0.00000057,0.00000896,0.00000148,-0.00000132,0.00000009,-0.00000
 065,-0.00000050,0.00000111,0.00000070,-0.00000155,-0.00000082,-0.00000
 053,-0.00000096,-0.00000113,0.26764096,-0.00002668,0.00000889,-0.00000
 589,-0.00006877,0.00000219,0.00000130,0.01071565,0.00586101,-0.0014393
 6,-0.00000200,-0.00000273,-0.00000205,-0.00000373,-0.00000511,0.000000
 67,0.00001236,-0.00002878,-0.00002851,0.00460537,0.00027172,0.00221613
 ,-0.00032016,-0.00066112,-0.00070326,-0.00001433,-0.00001317,-0.000021
 97,-0.00000141,-0.00001298,-0.00002304,-0.00001893,-0.00001586,-0.0000
 0848,-0.00151596,-0.00071542,-0.00023269,-0.00002505,0.00001003,0.0000
 2439,-0.00001288,0.00004644,0.00006073,0.00001253,0.00001334,0.0000149
 1,-0.00001810,0.00009250,-0.00016652,-0.00003626,0.00011130,-0.0000055
 7,0.00001585,-0.00000233,0.00000122,0.00002149,0.00011120,0.00002187,-
 0.00001943,-0.00000498,0.00001830,0.00000958,0.00001214,0.00000534,-0.
 00000222,-0.00000079,-0.00000125,-0.12353591,-0.11788572,0.01616206,-0
 .00005528,0.00009958,0.00003257,0.00095838,-0.00083600,0.00032937,-0.0
 0000215,-0.00000138,-0.00000386,-0.00000119,0.00000084,0.00000018,0.00
 000041,0.00000006,-0.00000065,0.,0.00000059,0.00000063,0.00000042,0.00
 000065,0.00000060,0.13154244,0.12333536,-0.00001490,0.00001912,-0.0000
 0675,0.00003992,0.00001040,-0.00003424,-0.01669095,-0.01283715,0.00201
 085,-0.00001349,0.00000734,-0.00000390,-0.00001315,-0.00000655,0.00000
 325,-0.00002595,0.00001765,0.00000391,-0.00571304,0.00155313,-0.001834
 49,0.00207688,0.00122178,-0.00007543,-0.00000676,0.00001352,0.00000311
 ,-0.00003107,-0.00000392,-0.00000159,-0.00000769,-0.00001077,-0.000015
 38,0.00160529,0.00021793,-0.00000447,0.00006570,0.00001572,0.00000015,
 0.00005172,-0.00002177,-0.00001253,0.00001071,0.00000190,0.00000359,0.
 00005883,-0.00019893,-0.00011230,-0.00004231,-0.00006767,0.00006206,0.
 00001232,-0.00001353,-0.00000711,-0.00000731,-0.00005427,0.00000055,-0
 .00000327,0.00000881,-0.00001257,0.00004196,0.00000594,0.00001339,-0.0
 0000558,-0.00000181,-0.00000107,0.03003989,0.01713673,-0.05100547,0.00
 009338,-0.00011767,-0.00009676,-0.00037553,0.00063472,0.00041811,0.000
 00080,-0.00000086,0.00000675,0.00000120,0.00000005,0.00000149,0.000000
 22,0.00000054,-0.00000041,0.00000027,0.00000175,0.00000062,0.00000062,
 0.00000011,0.00000212,-0.02951649,-0.01938888,0.04923521,-0.00002921,0
 .00001512,-0.00000503,0.00000086,-0.00001266,0.00001436,0.00816503,-0.
 00380558,-0.01982306,0.00000016,-0.00000574,0.00000260,-0.00000580,-0.
 00000873,0.00000881,-0.00001545,0.00000027,0.00002508,-0.00044176,0.00
 042418,0.00207682,-0.00184956,0.00256736,-0.00607916,0.00001916,-0.000
 01711,0.00001201,-0.00001671,-0.00000063,0.00001329,-0.00000634,0.0000
 0125,0.00000141,-0.00051318,0.00033336,0.00064921,0.00000799,0.0000405
 8,-0.00001687,0.00001828,0.00000189,-0.00004236,-0.00000791,0.00000613
 ,-0.00000893,0.00016883,-0.00035950,0.00043975,-0.00002627,0.00003464,
 -0.00004972,-0.00003982,-0.00002950,0.00002094,0.00004106,0.00003172,-
 0.00007322,0.00003088,-0.00008494,0.00000373,0.00000755,0.00001957,-0.
 00001156,-0.00000121,-0.00000214,0.00000013,-0.08886076,0.01012470,0.1
 0322260,-0.00003380,-0.00000654,-0.00006470,-0.00011207,-0.00006688,0.
 00005087,0.00000825,-0.00000428,0.00000009,0.00000092,0.00000034,-0.00
 000070,-0.00000096,0.00000293,-0.00000066,-0.00000255,0.00000174,-0.00
 000127,-0.00000008,0.00000085,0.00000102,-0.00597107,0.00452453,0.0241
 7922,0.09114660,-0.00002389,0.00001228,-0.00000946,-0.00001225,0.00001
 212,-0.00003108,-0.00455770,-0.00007586,0.01111700,-0.00000704,-0.0000
 0356,-0.00000312,-0.00001216,-0.00001276,0.00000522,0.00000196,-0.0000
 2859,-0.00003483,-0.00042461,-0.00061624,-0.00100184,0.00180240,0.0001
 3054,0.00347591,-0.00002537,0.00000326,-0.00002146,-0.00001556,-0.0000
 2008,-0.00003201,-0.00002412,-0.00002223,-0.00001940,-0.00014673,-0.00
 077868,-0.00089405,0.00004278,-0.00001418,0.00001150,0.00001277,0.0000
 4428,0.00007015,0.00002406,0.00001936,0.00002261,0.00021285,-0.0000754
 3,-0.00034978,-0.00005674,-0.00001953,0.00000210,0.00001869,0.00000601
 ,0.00001336,-0.00007078,0.00009691,0.00005283,0.00001005,0.00003190,0.
 00001461,0.00003257,0.00002580,0.00000909,-0.00000457,-0.00000146,-0.0
 0000066,0.01001709,-0.04907796,-0.02952110,0.00002501,0.00004009,0.000
 01646,0.00007328,-0.00000992,0.00045306,-0.00000558,0.00000101,-0.0000
 0245,-0.00000135,0.00000106,0.00000044,0.00000104,0.00000077,-0.000001
 30,-0.00000030,0.00000232,0.00000067,0.00000037,0.00000087,0.00000189,
 -0.00407960,0.00157253,0.01497952,-0.01284313,0.04787124,0.00003516,-0
 .00002219,0.00001499,-0.00002031,-0.00002071,0.00003054,0.00879723,-0.
 00255731,-0.01899069,0.00000983,-0.00000395,0.00000348,0.00000933,0.00
 000505,-0.00000152,0.00000240,0.00001043,0.00002660,-0.00025096,0.0000
 5684,0.00315589,-0.00274148,0.00167097,-0.00248176,0.00002755,-0.00000
 639,0.00001854,0.00001728,0.00001053,0.00001636,0.00001156,0.00002012,
 0.00001797,0.00014031,-0.00030616,0.00179075,-0.00005553,0.00001534,-0
 .00002324,-0.00002385,-0.00002319,-0.00005329,-0.00001418,-0.00000695,
 -0.00001012,-0.00054705,0.00022242,0.00041092,0.00013966,0.00001123,-0
 .00004469,-0.00001429,-0.00000736,0.00000291,0.00016539,-0.00013073,-0
 .00003554,-0.00002166,-0.00004983,-0.00003076,-0.00002982,-0.00000734,
 -0.00001234,0.00000577,0.00000234,0.00000207,0.10137518,-0.02864488,-0
 .28830030,-0.00004530,0.00002534,-0.00000199,0.00001034,-0.00009960,-0
 .00021089,0.00001103,-0.00000376,0.00000437,0.00000024,-0.00000040,-0.
 00000121,-0.00000048,-0.00000033,0.00000102,0.,-0.00000144,-0.00000071
 ,-0.00000051,-0.00000043,-0.00000190,-0.00065125,-0.00039556,0.0012307
 7,-0.10750394,0.02967024,0.30599997,-0.00005815,0.00002968,-0.00001355
 ,0.00003338,0.00001517,-0.00000906,-0.00266134,0.02161500,0.00542953,-
 0.00000468,-0.00000864,-0.00000148,-0.00001322,-0.00001697,0.00000882,
 0.00000381,-0.00004174,-0.00003679,0.00023630,-0.00265340,0.00003703,0
 .00002808,-0.00199099,0.00019541,-0.00002647,-0.00001052,-0.00003193,-
 0.00001972,-0.00002396,-0.00002823,-0.00002898,-0.00003046,-0.00002087
 ,-0.00432049,0.00220552,-0.00211086,0.00001194,0.00001296,-0.00001118,
 0.00001319,0.00006630,0.00008245,0.00001694,0.00002439,0.00002072,0.00
 141241,0.00106939,-0.00020349,0.00005993,-0.00006333,-0.00005253,0.000
 01860,-0.00003231,0.00002971,-0.00061286,0.00021868,0.00002127,0.00012
 369,0.00011425,-0.00005757,0.00002906,0.00003910,0.00000272,-0.0000060
 2,-0.00000311,-0.00000320,-0.04941733,0.03520375,0.00939388,-0.0000257
 7,0.00006034,0.00004091,-0.00018782,0.00024113,-0.00029857,-0.00004364
 ,0.00001761,-0.00001474,-0.00000173,0.00000189,-0.00000006,0.00000013,
 0.00000157,-0.00000163,-0.00000210,0.00000317,0.00000058,-0.00000006,0
 .00000143,0.00000239,0.00668112,-0.02674702,-0.00581419,-0.00167714,0.
 01001923,0.00116777,0.05042875,0.00000241,0.00000290,-0.00000058,0.000
 00718,0.00000651,0.00000431,0.00183176,-0.01167577,-0.00217129,-0.0000
 0566,0.00000245,-0.00000109,-0.00000635,-0.00000377,0.00000245,-0.0000
 1284,0.00000976,0.00001003,-0.00032130,0.00143486,0.00000748,-0.000716
 97,0.00180151,0.00044258,0.00000396,0.00000647,0.00000476,-0.00001471,
 -0.00000050,0.00000226,-0.00000067,-0.00000204,-0.00000433,0.00168147,
 -0.00005592,0.00073207,0.00004100,0.00000600,0.00000297,0.00002251,-0.
 00001464,-0.00002064,0.00000555,-0.00000052,0.00000004,-0.00054001,-0.
 00002590,0.00016595,0.00000624,0.00000193,-0.00001078,0.00000569,0.000
 00833,-0.00000965,0.00016457,-0.00008234,0.00000507,-0.00004776,-0.000
 03528,0.00000503,0.00001914,0.00000422,0.00000366,-0.00000206,-0.00000
 016,-0.00000009,0.03492167,-0.30862997,-0.06445968,0.00006161,-0.00005
 788,-0.00002345,-0.00018995,0.00022614,-0.00013968,0.00001350,-0.00000
 676,-0.00000144,0.00000079,0.00000026,0.00000030,0.00000025,-0.0000001
 2,-0.00000013,0.00000053,0.00000072,0.00000025,0.00000039,0.,0.0000006
 6,0.00331762,-0.01137031,-0.00312309,-0.00089949,0.00087738,0.00056736
 ,-0.03935108,0.32757498,-0.00006476,0.00003676,-0.00001487,0.00004166,
 0.00002647,-0.00000180,-0.00146075,0.02151654,0.00504714,-0.00001318,0
 .00000208,-0.00000567,-0.00001415,-0.00001040,0.00000240,-0.00000198,-
 0.00003074,-0.00004281,0.00104100,-0.00151022,-0.00028608,0.00032773,-
 0.00235784,-0.00083325,-0.00004228,0.,-0.00003838,-0.00002412,-0.00002
 062,-0.00003080,-0.00002719,-0.00002942,-0.00002802,-0.00466366,0.0019
 4917,-0.00162044,-0.00000241,-0.00000094,-0.00000820,0.00002477,0.0000
 5201,0.00008893,0.00001982,0.00001760,0.00002213,0.00094388,0.00126203
 ,0.00013795,0.00007837,0.00003075,-0.00006589,0.00004924,-0.00003406,0
 .00002898,-0.00056805,0.00009272,0.00005366,0.00007941,0.00010971,-0.0
 0009869,0.00004304,0.00002032,0.00001941,-0.00000815,-0.00000319,-0.00
 000388,0.00930363,-0.06448688,-0.06175085,-0.00003018,0.00002557,0.000
 03163,0.00001078,-0.00023128,-0.00012745,-0.00004157,0.00001763,-0.000
 01160,-0.00000091,0.00000163,0.00000156,0.00000045,0.,-0.00000120,-0.0
 0000011,0.00000214,0.00000189,0.00000080,0.00000083,0.00000258,-0.0002
 7255,0.00353718,0.00023423,0.00297582,-0.02799971,-0.00253405,-0.00771
 196,0.06800921,0.06184275,-0.00036469,0.00009136,0.00009735,0.00017390
 ,0.00006957,-0.00002856,-0.00004984,0.00056470,0.00020993,0.00009557,0
 .00016741,0.00021762,0.00001027,0.00002946,0.00026508,0.00134799,0.001
 25474,0.00276795,-0.00002780,-0.00017515,-0.00005911,0.00005576,-0.000
 13285,-0.00015514,0.01616096,0.01193920,0.02256896,-0.00622026,-0.0003
 4668,0.00018949,-0.13031795,-0.06579811,-0.12590077,0.00014754,-0.0003
 5419,0.00002468,0.00298131,0.00010283,-0.00078804,-0.00652803,0.000985
 09,0.00135601,0.00003978,-0.01243812,-0.02623589,-0.00032163,0.0002962
 2,-0.00021675,-0.00075495,0.00037925,-0.00041313,0.00013150,-0.0010609
 8,0.00039419,-0.00019584,-0.00016849,0.00012607,-0.00009856,-0.0000863
 4,-0.00000298,0.00117097,-0.00079525,-0.00113740,0.00100805,-0.0004543
 7,-0.00091954,-0.00000019,-0.00005543,-0.00000988,0.00003426,0.0001871
 0,0.00017563,-0.00001245,-0.00000842,-0.00000088,-0.00001157,-0.000012
 65,0.00001466,-0.00051847,-0.00005335,-0.00011148,-0.00080474,0.000542
 51,0.00099826,0.00013392,0.00005259,0.00019920,0.00015348,0.00016803,0
 .00011616,-0.00001086,0.00000844,0.00000276,-0.00000391,0.00001732,-0.
 00000544,0.00001021,0.00000099,0.00000754,0.12258628,0.00061476,-0.000
 35062,-0.00006865,0.00001373,-0.00003258,0.00001295,0.00025809,0.00044
 414,-0.00005853,0.00014355,-0.00020692,0.00001924,0.00072111,0.0002323
 4,0.00002515,-0.00120674,0.00119917,0.00009259,-0.00019221,-0.00012209
 ,0.00007373,-0.00003580,-0.00011561,-0.00001946,-0.00531032,-0.0086322
 4,-0.00448722,-0.00128839,0.00702210,0.00203082,-0.05985282,-0.0839096
 4,-0.15787808,0.00008779,-0.00033044,0.00013084,0.00063904,0.00119931,
 -0.00026369,0.00491468,-0.00192437,0.00022594,-0.00301167,-0.00534083,
 -0.00073451,-0.00008241,0.00018352,-0.00003125,-0.00014715,0.00006495,
 0.00011609,-0.00076562,0.00046336,-0.00000279,-0.00005932,-0.00010325,
 0.00002641,-0.00007817,-0.00019886,-0.00001985,-0.00143327,0.00190144,
 -0.00154194,0.00082209,-0.00312222,0.00271817,-0.00002243,-0.00004677,
 -0.00000826,0.00014733,-0.00014562,-0.00009776,0.00000097,0.00001214,-
 0.00000663,-0.00003731,0.00000405,0.00003494,0.00011329,-0.00021110,0.
 00007240,0.00002813,0.00037791,-0.00035077,-0.00065153,0.00001836,-0.0
 0026297,0.00056876,0.00014365,-0.00039806,-0.00001039,0.00000632,0.000
 00022,0.00001567,0.00000673,0.00000030,0.00001297,-0.00000254,0.000004
 92,0.06508358,0.09151620,-0.00053269,0.00010396,0.00015515,-0.00025402
 ,-0.00006273,0.00003217,0.00007689,-0.00045301,0.00013012,0.00071376,-
 0.00021987,0.00014725,0.00037081,0.00019766,-0.00020015,-0.00127526,-0
 .00044647,0.00056347,-0.00002680,0.00013627,-0.00008286,-0.00005430,0.
 00012708,0.00001498,-0.00869893,-0.00400249,-0.01290278,0.00121808,0.0
 0065009,0.00684565,-0.12182625,-0.16108543,-0.31598249,-0.00030121,0.0
 0037560,-0.00027472,0.00051960,0.00020945,0.00037845,0.00571135,0.0003
 6887,-0.00215536,-0.00195561,0.00305058,0.00051057,0.00015617,-0.00040
 368,0.00010021,0.00017483,-0.00024492,0.00007909,0.00062088,0.00002108
 ,-0.00012513,0.00019199,0.00026456,-0.00005070,-0.00008282,0.00004025,
 -0.00000661,-0.00177254,-0.00125017,0.00051637,0.00041364,0.00257331,0
 .00036849,-0.00001388,0.00004009,0.00001030,-0.00000925,0.00006412,0.0
 0015133,0.00000791,0.00001824,0.00005209,0.00000418,0.00000688,0.00000
 116,0.00024811,0.00011702,-0.00006006,0.00001811,-0.00035199,-0.000059
 08,0.00037255,-0.00031439,-0.00023039,-0.00024424,-0.00018086,-0.00020
 759,0.00000346,0.00000011,-0.00000570,-0.00001660,0.00000560,0.0000078
 5,-0.00001132,-0.00000053,-0.00001133,0.12625344,0.16064573,0.32229023
 \\0.00000355,-0.00000159,0.00000204,0.00000180,0.00000166,0.00000359,-
 0.00000717,0.00000166,0.00000089,0.00000076,-0.00000130,0.00000222,0.0
 0000079,0.00000345,-0.00000127,0.00000168,0.00000302,0.00000258,0.0000
 0818,0.00000126,-0.00000336,-0.00000111,-0.00000009,0.00000173,0.00000
 260,0.00000151,0.00000902,-0.00000013,0.00000143,0.00000106,-0.0000004
 3,-0.00000798,-0.00000872,-0.00000246,-0.00000288,-0.00000306,-0.00000
 013,0.00000211,-0.00000161,-0.00000395,-0.00000155,-0.00000538,-0.0000
 0331,0.00000230,0.00000411,0.00000190,-0.00000752,0.00000275,0.0000053
 9,0.00000171,0.00000266,-0.00000511,0.00000391,-0.00000146,-0.00000615
 ,0.00000173,-0.00000646,0.00000400,-0.00000030,0.00000545,0.00000128,0
 .00000022,-0.00000423,0.00000194,-0.00000357,-0.00000147,0.00000201,-0
 .00000123,0.00000105,-0.00000225,0.00000187,-0.00000115,-0.00000012,0.
 00000111,0.00000254,0.00000075,0.00000089,0.00000231,0.00000030,0.0000
 0057,-0.00000141,-0.00000071,-0.00000086,-0.00000031,-0.00000126,-0.00
 000046,-0.00000105,-0.00000099,0.00000034,-0.00000029,-0.00000006,-0.0
 0000059,-0.00000009,-0.00000068,-0.00000083,-0.00000124,-0.00000025,-0
 .00000047,-0.00000116,-0.00000064,0.00000045,-0.00000025\\\@


 THE FIRST AND LAST THING REQUIRED OF GENIUS IS THE LOVE OF TRUTH.

                          -- GOETHE
 Job cpu time:       0 days  6 hours 31 minutes 51.9 seconds.
 Elapsed time:       0 days  0 hours 49 minutes  0.6 seconds.
 File lengths (MBytes):  RWF=   1000 Int=      0 D2E=      0 Chk=     22 Scr=      1
 Normal termination of Gaussian 16 at Mon Jul 30 23:15:44 2018.
