 Entering Gaussian System, Link 0=g16
 Initial command:
 /opt/software/gaussian/g16.a03/l1.exe "/localscratch/cieritan.6775245.0/Gau-2430.inp" -scrdir="/localscratch/cieritan.6775245.0/"
 Entering Link 1 = /opt/software/gaussian/g16.a03/l1.exe PID=      2431.
  
 Copyright (c) 1988,1990,1992,1993,1995,1998,2003,2009,2016,
            Gaussian, Inc.  All Rights Reserved.
  
 This is part of the Gaussian(R) 16 program.  It is based on
 the Gaussian(R) 09 system (copyright 2009, Gaussian, Inc.),
 the Gaussian(R) 03 system (copyright 2003, Gaussian, Inc.),
 the Gaussian(R) 98 system (copyright 1998, Gaussian, Inc.),
 the Gaussian(R) 94 system (copyright 1995, Gaussian, Inc.),
 the Gaussian 92(TM) system (copyright 1992, Gaussian, Inc.),
 the Gaussian 90(TM) system (copyright 1990, Gaussian, Inc.),
 the Gaussian 88(TM) system (copyright 1988, Gaussian, Inc.),
 the Gaussian 86(TM) system (copyright 1986, Carnegie Mellon
 University), and the Gaussian 82(TM) system (copyright 1983,
 Carnegie Mellon University). Gaussian is a federally registered
 trademark of Gaussian, Inc.
  
 This software contains proprietary and confidential information,
 including trade secrets, belonging to Gaussian, Inc.
  
 This software is provided under written license and may be
 used, copied, transmitted, or stored only in accord with that
 written license.
  
 The following legend is applicable only to US Government
 contracts under FAR:
  
                    RESTRICTED RIGHTS LEGEND
  
 Use, reproduction and disclosure by the US Government is
 subject to restrictions as set forth in subparagraphs (a)
 and (c) of the Commercial Computer Software - Restricted
 Rights clause in FAR 52.227-19.
  
 Gaussian, Inc.
 340 Quinnipiac St., Bldg. 40, Wallingford CT 06492
  
  
 ---------------------------------------------------------------
 Warning -- This program may not be used in any manner that
 competes with the business of Gaussian, Inc. or will provide
 assistance to any competitor of Gaussian, Inc.  The licensee
 of this program is prohibited from giving any competitor of
 Gaussian, Inc. access to this program.  By using this program,
 the user acknowledges that Gaussian, Inc. is engaged in the
 business of creating and licensing software in the field of
 computational chemistry and represents and warrants to the
 licensee that it is not a competitor of Gaussian, Inc. and that
 it will not use this program in any manner prohibited above.
 ---------------------------------------------------------------
  

 Cite this work as:
 Gaussian 16, Revision A.03,
 M. J. Frisch, G. W. Trucks, H. B. Schlegel, G. E. Scuseria, 
 M. A. Robb, J. R. Cheeseman, G. Scalmani, V. Barone, 
 G. A. Petersson, H. Nakatsuji, X. Li, M. Caricato, A. V. Marenich, 
 J. Bloino, B. G. Janesko, R. Gomperts, B. Mennucci, H. P. Hratchian, 
 J. V. Ortiz, A. F. Izmaylov, J. L. Sonnenberg, D. Williams-Young, 
 F. Ding, F. Lipparini, F. Egidi, J. Goings, B. Peng, A. Petrone, 
 T. Henderson, D. Ranasinghe, V. G. Zakrzewski, J. Gao, N. Rega, 
 G. Zheng, W. Liang, M. Hada, M. Ehara, K. Toyota, R. Fukuda, 
 J. Hasegawa, M. Ishida, T. Nakajima, Y. Honda, O. Kitao, H. Nakai, 
 T. Vreven, K. Throssell, J. A. Montgomery, Jr., J. E. Peralta, 
 F. Ogliaro, M. J. Bearpark, J. J. Heyd, E. N. Brothers, K. N. Kudin, 
 V. N. Staroverov, T. A. Keith, R. Kobayashi, J. Normand, 
 K. Raghavachari, A. P. Rendell, J. C. Burant, S. S. Iyengar, 
 J. Tomasi, M. Cossi, J. M. Millam, M. Klene, C. Adamo, R. Cammi, 
 J. W. Ochterski, R. L. Martin, K. Morokuma, O. Farkas, 
 J. B. Foresman, and D. J. Fox, Gaussian, Inc., Wallingford CT, 2016.
 
 ******************************************
 Gaussian 16:  ES64L-G16RevA.03 25-Dec-2016
                30-Jul-2018 
 ******************************************
 %rwf=/scratch/cieritan/rwf/PROSULFOCARB_1.rwf
 %chk=/scratch/cieritan/chk/PROSULFOCARB_1.chk
 %mem=4000mb
 %nproc=8
 Will use up to    8 processors via shared memory.
 ----------------------------------------------------------------------
 # opt=maxcycles=150 freq b3lyp/6-31++g(d,p) empiricaldispersion=GD3 in
 t=ultrafine scf=xqc pop=(mk,dipole)
 ----------------------------------------------------------------------
 1/6=150,18=20,19=15,26=4,38=1/1,3;
 2/9=110,12=2,17=6,18=5,40=1/2;
 3/5=1,6=6,7=1111,11=2,25=1,30=1,71=1,74=-5,75=-5,124=31/1,2,3;
 4//1;
 5/5=2,8=3,13=1,38=5/2,8;
 6/7=2,8=2,9=2,10=2,15=24,20=1,28=1/1,2;
 7//1,2,3,16;
 1/6=150,18=20,19=15,26=4/3(2);
 2/9=110/2;
 99//99;
 2/9=110/2;
 3/5=1,6=6,7=1111,11=2,25=1,30=1,71=1,74=-5,75=-5,124=31/1,2,3;
 4/5=5,16=3,69=1/1;
 5/5=2,8=3,13=1,38=5/2,8;
 7//1,2,3,16;
 1/6=150,18=20,19=15,26=4/3(-5);
 2/9=110/2;
 6/7=2,8=2,9=2,10=2,15=24,19=2,20=1,28=1/1,2;
 99/9=1/99;
 -----------------------------
 Original File: PROSULFOCARB_1
 -----------------------------
 Symbolic Z-matrix:
 Charge =  1 Multiplicity = 1
 S                    -0.52417   0.00822  -0.00547 
 O                     1.09172  -1.77589  -0.86537 
 N                     2.20002   0.13763  -0.04523 
 C                     3.55659  -0.39856  -0.38046 
 C                     2.13978   1.49223   0.59526 
 C                     4.07608  -1.32539   0.72923 
 C                     2.02598   2.59864  -0.46334 
 C                     1.0926   -0.55938  -0.31722 
 C                     5.40988  -1.93888   0.32572 
 C                     2.02003   3.96653   0.20749 
 C                    -1.61703  -1.37785  -0.46765 
 C                    -2.94262  -0.76424  -0.16107 
 C                    -3.63321  -0.04872  -1.15423 
 C                    -3.50577  -0.90892   1.11847 
 C                    -4.87752   0.51607  -0.86565 
 C                    -4.75057  -0.34082   1.39825 
 C                    -5.4368    0.37211   0.40889 
 H                     4.25618   0.46233  -0.52559 
 H                     3.53092  -0.92006  -1.36566 
 H                     3.06348   1.62832   1.20904 
 H                     1.29077   1.54204   1.31862 
 H                     4.1982   -0.75835   1.67759 
 H                     3.34565  -2.12595   0.96114 
 H                     2.8668    2.5394   -1.18473 
 H                     1.1026    2.47453  -1.06629 
 H                     6.18375  -1.18035   0.14514 
 H                     5.79973  -2.59007   1.1243 
 H                     5.34037  -2.55921  -0.5758 
 H                     2.93978   4.16288   0.77322 
 H                     1.9373    4.76933  -0.54129 
 H                     1.17427   4.09428   0.89523 
 H                    -1.49646  -1.66186  -1.53343 
 H                    -1.40364  -2.29008   0.12606 
 H                    -3.21082   0.06015  -2.15312 
 H                    -2.98409  -1.47128   1.89277 
 H                    -5.41771   1.06686  -1.63815 
 H                    -5.19187  -0.45778   2.38996 
 H                    -6.41164   0.81209   0.63009 
 H                     1.99468  -2.182    -1.0741 
 

 GradGradGradGradGradGradGradGradGradGradGradGradGradGradGradGradGradGrad
 Berny optimization.
 Initialization pass.
                           ----------------------------
                           !    Initial Parameters    !
                           ! (Angstroms and Degrees)  !
 --------------------------                            --------------------------
 ! Name  Definition              Value          Derivative Info.                !
 --------------------------------------------------------------------------------
 ! R1    R(1,8)                  1.7416         estimate D2E/DX2                !
 ! R2    R(1,11)                 1.8246         estimate D2E/DX2                !
 ! R3    R(2,8)                  1.3343         estimate D2E/DX2                !
 ! R4    R(2,39)                 1.0118         estimate D2E/DX2                !
 ! R5    R(3,4)                  1.4967         estimate D2E/DX2                !
 ! R6    R(3,5)                  1.4996         estimate D2E/DX2                !
 ! R7    R(3,8)                  1.3365         estimate D2E/DX2                !
 ! R8    R(4,6)                  1.5363         estimate D2E/DX2                !
 ! R9    R(4,18)                 1.1188         estimate D2E/DX2                !
 ! R10   R(4,19)                 1.115          estimate D2E/DX2                !
 ! R11   R(5,7)                  1.5355         estimate D2E/DX2                !
 ! R12   R(5,20)                 1.1174         estimate D2E/DX2                !
 ! R13   R(5,21)                 1.1165         estimate D2E/DX2                !
 ! R14   R(6,9)                  1.5226         estimate D2E/DX2                !
 ! R15   R(6,22)                 1.1117         estimate D2E/DX2                !
 ! R16   R(6,23)                 1.1082         estimate D2E/DX2                !
 ! R17   R(7,10)                 1.5235         estimate D2E/DX2                !
 ! R18   R(7,24)                 1.1095         estimate D2E/DX2                !
 ! R19   R(7,25)                 1.1098         estimate D2E/DX2                !
 ! R20   R(9,26)                 1.0986         estimate D2E/DX2                !
 ! R21   R(9,27)                 1.1017         estimate D2E/DX2                !
 ! R22   R(9,28)                 1.0965         estimate D2E/DX2                !
 ! R23   R(10,29)                1.0975         estimate D2E/DX2                !
 ! R24   R(10,30)                1.1009         estimate D2E/DX2                !
 ! R25   R(10,31)                1.0975         estimate D2E/DX2                !
 ! R26   R(11,12)                1.4925         estimate D2E/DX2                !
 ! R27   R(11,32)                1.1095         estimate D2E/DX2                !
 ! R28   R(11,33)                1.1091         estimate D2E/DX2                !
 ! R29   R(12,13)                1.4054         estimate D2E/DX2                !
 ! R30   R(12,14)                1.4055         estimate D2E/DX2                !
 ! R31   R(13,15)                1.3966         estimate D2E/DX2                !
 ! R32   R(13,34)                1.09           estimate D2E/DX2                !
 ! R33   R(14,16)                1.3966         estimate D2E/DX2                !
 ! R34   R(14,35)                1.0899         estimate D2E/DX2                !
 ! R35   R(15,17)                1.3993         estimate D2E/DX2                !
 ! R36   R(15,36)                1.0918         estimate D2E/DX2                !
 ! R37   R(16,17)                1.3993         estimate D2E/DX2                !
 ! R38   R(16,37)                1.0917         estimate D2E/DX2                !
 ! R39   R(17,38)                1.0922         estimate D2E/DX2                !
 ! A1    A(8,1,11)             105.2546         estimate D2E/DX2                !
 ! A2    A(8,2,39)             116.7487         estimate D2E/DX2                !
 ! A3    A(4,3,5)              117.1083         estimate D2E/DX2                !
 ! A4    A(4,3,8)              121.2387         estimate D2E/DX2                !
 ! A5    A(5,3,8)              121.6506         estimate D2E/DX2                !
 ! A6    A(3,4,6)              111.1504         estimate D2E/DX2                !
 ! A7    A(3,4,18)             108.6725         estimate D2E/DX2                !
 ! A8    A(3,4,19)             110.1567         estimate D2E/DX2                !
 ! A9    A(6,4,18)             110.272          estimate D2E/DX2                !
 ! A10   A(6,4,19)             111.3358         estimate D2E/DX2                !
 ! A11   A(18,4,19)            105.0516         estimate D2E/DX2                !
 ! A12   A(3,5,7)              111.0642         estimate D2E/DX2                !
 ! A13   A(3,5,20)             108.1458         estimate D2E/DX2                !
 ! A14   A(3,5,21)             110.3384         estimate D2E/DX2                !
 ! A15   A(7,5,20)             110.6228         estimate D2E/DX2                !
 ! A16   A(7,5,21)             110.9872         estimate D2E/DX2                !
 ! A17   A(20,5,21)            105.5038         estimate D2E/DX2                !
 ! A18   A(4,6,9)              110.3571         estimate D2E/DX2                !
 ! A19   A(4,6,22)             110.2191         estimate D2E/DX2                !
 ! A20   A(4,6,23)             111.3504         estimate D2E/DX2                !
 ! A21   A(9,6,22)             109.5953         estimate D2E/DX2                !
 ! A22   A(9,6,23)             109.985          estimate D2E/DX2                !
 ! A23   A(22,6,23)            105.2096         estimate D2E/DX2                !
 ! A24   A(5,7,10)             110.1014         estimate D2E/DX2                !
 ! A25   A(5,7,24)             110.7092         estimate D2E/DX2                !
 ! A26   A(5,7,25)             110.8333         estimate D2E/DX2                !
 ! A27   A(10,7,24)            109.7063         estimate D2E/DX2                !
 ! A28   A(10,7,25)            109.6568         estimate D2E/DX2                !
 ! A29   A(24,7,25)            105.7441         estimate D2E/DX2                !
 ! A30   A(1,8,2)              111.7188         estimate D2E/DX2                !
 ! A31   A(1,8,3)              124.2502         estimate D2E/DX2                !
 ! A32   A(2,8,3)              124.0307         estimate D2E/DX2                !
 ! A33   A(6,9,26)             112.4853         estimate D2E/DX2                !
 ! A34   A(6,9,27)             110.8574         estimate D2E/DX2                !
 ! A35   A(6,9,28)             112.9729         estimate D2E/DX2                !
 ! A36   A(26,9,27)            106.1408         estimate D2E/DX2                !
 ! A37   A(26,9,28)            107.4655         estimate D2E/DX2                !
 ! A38   A(27,9,28)            106.4993         estimate D2E/DX2                !
 ! A39   A(7,10,29)            112.6012         estimate D2E/DX2                !
 ! A40   A(7,10,30)            110.8265         estimate D2E/DX2                !
 ! A41   A(7,10,31)            112.5455         estimate D2E/DX2                !
 ! A42   A(29,10,30)           106.4458         estimate D2E/DX2                !
 ! A43   A(29,10,31)           107.5748         estimate D2E/DX2                !
 ! A44   A(30,10,31)           106.4635         estimate D2E/DX2                !
 ! A45   A(1,11,12)             99.6497         estimate D2E/DX2                !
 ! A46   A(1,11,32)            111.8808         estimate D2E/DX2                !
 ! A47   A(1,11,33)            111.9602         estimate D2E/DX2                !
 ! A48   A(12,11,32)           113.5193         estimate D2E/DX2                !
 ! A49   A(12,11,33)           113.5185         estimate D2E/DX2                !
 ! A50   A(32,11,33)           106.4239         estimate D2E/DX2                !
 ! A51   A(11,12,13)           120.0364         estimate D2E/DX2                !
 ! A52   A(11,12,14)           120.0369         estimate D2E/DX2                !
 ! A53   A(13,12,14)           119.9253         estimate D2E/DX2                !
 ! A54   A(12,13,15)           119.8444         estimate D2E/DX2                !
 ! A55   A(12,13,34)           120.5334         estimate D2E/DX2                !
 ! A56   A(15,13,34)           119.6187         estimate D2E/DX2                !
 ! A57   A(12,14,16)           119.8441         estimate D2E/DX2                !
 ! A58   A(12,14,35)           120.5367         estimate D2E/DX2                !
 ! A59   A(16,14,35)           119.6155         estimate D2E/DX2                !
 ! A60   A(13,15,17)           120.1789         estimate D2E/DX2                !
 ! A61   A(13,15,36)           119.9102         estimate D2E/DX2                !
 ! A62   A(17,15,36)           119.9101         estimate D2E/DX2                !
 ! A63   A(14,16,17)           120.1791         estimate D2E/DX2                !
 ! A64   A(14,16,37)           119.912          estimate D2E/DX2                !
 ! A65   A(17,16,37)           119.9081         estimate D2E/DX2                !
 ! A66   A(15,17,16)           120.0281         estimate D2E/DX2                !
 ! A67   A(15,17,38)           119.9859         estimate D2E/DX2                !
 ! A68   A(16,17,38)           119.9852         estimate D2E/DX2                !
 ! D1    D(11,1,8,2)             3.6966         estimate D2E/DX2                !
 ! D2    D(11,1,8,3)          -176.4799         estimate D2E/DX2                !
 ! D3    D(8,1,11,12)         -179.8043         estimate D2E/DX2                !
 ! D4    D(8,1,11,32)          -59.5065         estimate D2E/DX2                !
 ! D5    D(8,1,11,33)           59.8646         estimate D2E/DX2                !
 ! D6    D(39,2,8,1)          -179.6805         estimate D2E/DX2                !
 ! D7    D(39,2,8,3)             0.4955         estimate D2E/DX2                !
 ! D8    D(5,3,4,6)             95.9194         estimate D2E/DX2                !
 ! D9    D(5,3,4,18)           -25.6068         estimate D2E/DX2                !
 ! D10   D(5,3,4,19)          -140.1924         estimate D2E/DX2                !
 ! D11   D(8,3,4,6)            -84.6346         estimate D2E/DX2                !
 ! D12   D(8,3,4,18)           153.8391         estimate D2E/DX2                !
 ! D13   D(8,3,4,19)            39.2536         estimate D2E/DX2                !
 ! D14   D(4,3,5,7)             90.4913         estimate D2E/DX2                !
 ! D15   D(4,3,5,20)           -31.0703         estimate D2E/DX2                !
 ! D16   D(4,3,5,21)          -145.9982         estimate D2E/DX2                !
 ! D17   D(8,3,5,7)            -88.9522         estimate D2E/DX2                !
 ! D18   D(8,3,5,20)           149.4861         estimate D2E/DX2                !
 ! D19   D(8,3,5,21)            34.5582         estimate D2E/DX2                !
 ! D20   D(4,3,8,1)           -178.0859         estimate D2E/DX2                !
 ! D21   D(4,3,8,2)              1.7162         estimate D2E/DX2                !
 ! D22   D(5,3,8,1)              1.3347         estimate D2E/DX2                !
 ! D23   D(5,3,8,2)           -178.8631         estimate D2E/DX2                !
 ! D24   D(3,4,6,9)            175.93           estimate D2E/DX2                !
 ! D25   D(3,4,6,22)           -62.8809         estimate D2E/DX2                !
 ! D26   D(3,4,6,23)            53.4881         estimate D2E/DX2                !
 ! D27   D(18,4,6,9)           -63.483          estimate D2E/DX2                !
 ! D28   D(18,4,6,22)           57.7061         estimate D2E/DX2                !
 ! D29   D(18,4,6,23)          174.0751         estimate D2E/DX2                !
 ! D30   D(19,4,6,9)            52.7152         estimate D2E/DX2                !
 ! D31   D(19,4,6,22)          173.9043         estimate D2E/DX2                !
 ! D32   D(19,4,6,23)          -69.7267         estimate D2E/DX2                !
 ! D33   D(3,5,7,10)          -177.8474         estimate D2E/DX2                !
 ! D34   D(3,5,7,24)           -56.3652         estimate D2E/DX2                !
 ! D35   D(3,5,7,25)            60.6507         estimate D2E/DX2                !
 ! D36   D(20,5,7,10)          -57.7461         estimate D2E/DX2                !
 ! D37   D(20,5,7,24)           63.7361         estimate D2E/DX2                !
 ! D38   D(20,5,7,25)         -179.248          estimate D2E/DX2                !
 ! D39   D(21,5,7,10)           59.0143         estimate D2E/DX2                !
 ! D40   D(21,5,7,24)         -179.5036         estimate D2E/DX2                !
 ! D41   D(21,5,7,25)          -62.4876         estimate D2E/DX2                !
 ! D42   D(4,6,9,26)            60.2294         estimate D2E/DX2                !
 ! D43   D(4,6,9,27)           178.8937         estimate D2E/DX2                !
 ! D44   D(4,6,9,28)           -61.6593         estimate D2E/DX2                !
 ! D45   D(22,6,9,26)          -61.3301         estimate D2E/DX2                !
 ! D46   D(22,6,9,27)           57.3341         estimate D2E/DX2                !
 ! D47   D(22,6,9,28)          176.7811         estimate D2E/DX2                !
 ! D48   D(23,6,9,26)         -176.5306         estimate D2E/DX2                !
 ! D49   D(23,6,9,27)          -57.8664         estimate D2E/DX2                !
 ! D50   D(23,6,9,28)           61.5806         estimate D2E/DX2                !
 ! D51   D(5,7,10,29)           60.9742         estimate D2E/DX2                !
 ! D52   D(5,7,10,30)         -179.9184         estimate D2E/DX2                !
 ! D53   D(5,7,10,31)          -60.8256         estimate D2E/DX2                !
 ! D54   D(24,7,10,29)         -61.1038         estimate D2E/DX2                !
 ! D55   D(24,7,10,30)          58.0036         estimate D2E/DX2                !
 ! D56   D(24,7,10,31)         177.0965         estimate D2E/DX2                !
 ! D57   D(25,7,10,29)        -176.8254         estimate D2E/DX2                !
 ! D58   D(25,7,10,30)         -57.718          estimate D2E/DX2                !
 ! D59   D(25,7,10,31)          61.3749         estimate D2E/DX2                !
 ! D60   D(1,11,12,13)          90.1787         estimate D2E/DX2                !
 ! D61   D(1,11,12,14)         -90.2474         estimate D2E/DX2                !
 ! D62   D(32,11,12,13)        -28.9172         estimate D2E/DX2                !
 ! D63   D(32,11,12,14)        150.6566         estimate D2E/DX2                !
 ! D64   D(33,11,12,13)       -150.6323         estimate D2E/DX2                !
 ! D65   D(33,11,12,14)         28.9415         estimate D2E/DX2                !
 ! D66   D(11,12,13,15)        179.565          estimate D2E/DX2                !
 ! D67   D(11,12,13,34)          0.2592         estimate D2E/DX2                !
 ! D68   D(14,12,13,15)         -0.0093         estimate D2E/DX2                !
 ! D69   D(14,12,13,34)       -179.3151         estimate D2E/DX2                !
 ! D70   D(11,12,14,16)       -179.5648         estimate D2E/DX2                !
 ! D71   D(11,12,14,35)         -0.2669         estimate D2E/DX2                !
 ! D72   D(13,12,14,16)          0.0096         estimate D2E/DX2                !
 ! D73   D(13,12,14,35)        179.3074         estimate D2E/DX2                !
 ! D74   D(12,13,15,17)          0.0517         estimate D2E/DX2                !
 ! D75   D(12,13,15,36)       -179.6237         estimate D2E/DX2                !
 ! D76   D(34,13,15,17)        179.3639         estimate D2E/DX2                !
 ! D77   D(34,13,15,36)         -0.3115         estimate D2E/DX2                !
 ! D78   D(12,14,16,17)         -0.0522         estimate D2E/DX2                !
 ! D79   D(12,14,16,37)        179.622          estimate D2E/DX2                !
 ! D80   D(35,14,16,17)       -179.3565         estimate D2E/DX2                !
 ! D81   D(35,14,16,37)          0.3177         estimate D2E/DX2                !
 ! D82   D(13,15,17,16)         -0.0943         estimate D2E/DX2                !
 ! D83   D(13,15,17,38)       -179.7858         estimate D2E/DX2                !
 ! D84   D(36,15,17,16)        179.581          estimate D2E/DX2                !
 ! D85   D(36,15,17,38)         -0.1105         estimate D2E/DX2                !
 ! D86   D(14,16,17,15)          0.0946         estimate D2E/DX2                !
 ! D87   D(14,16,17,38)        179.7861         estimate D2E/DX2                !
 ! D88   D(37,16,17,15)       -179.5796         estimate D2E/DX2                !
 ! D89   D(37,16,17,38)          0.1119         estimate D2E/DX2                !
 --------------------------------------------------------------------------------
 Trust Radius=3.00D-01 FncErr=1.00D-07 GrdErr=1.00D-06 EigMax=2.50D+02 EigMin=1.00D-04
 Number of steps in this run=    150 maximum allowed number of steps=    234.
 GradGradGradGradGradGradGradGradGradGradGradGradGradGradGradGradGradGrad

                          Input orientation:                          
 ---------------------------------------------------------------------
 Center     Atomic      Atomic             Coordinates (Angstroms)
 Number     Number       Type             X           Y           Z
 ---------------------------------------------------------------------
      1         16           0       -0.524169    0.008217   -0.005471
      2          8           0        1.091724   -1.775893   -0.865368
      3          7           0        2.200018    0.137632   -0.045229
      4          6           0        3.556589   -0.398557   -0.380461
      5          6           0        2.139781    1.492225    0.595255
      6          6           0        4.076080   -1.325393    0.729231
      7          6           0        2.025977    2.598643   -0.463339
      8          6           0        1.092601   -0.559377   -0.317224
      9          6           0        5.409883   -1.938881    0.325718
     10          6           0        2.020026    3.966534    0.207487
     11          6           0       -1.617032   -1.377845   -0.467654
     12          6           0       -2.942618   -0.764237   -0.161068
     13          6           0       -3.633206   -0.048717   -1.154231
     14          6           0       -3.505774   -0.908923    1.118471
     15          6           0       -4.877519    0.516070   -0.865651
     16          6           0       -4.750570   -0.340818    1.398253
     17          6           0       -5.436795    0.372111    0.408888
     18          1           0        4.256178    0.462333   -0.525588
     19          1           0        3.530915   -0.920062   -1.365657
     20          1           0        3.063484    1.628322    1.209039
     21          1           0        1.290770    1.542037    1.318620
     22          1           0        4.198205   -0.758348    1.677593
     23          1           0        3.345646   -2.125949    0.961141
     24          1           0        2.866802    2.539400   -1.184730
     25          1           0        1.102598    2.474531   -1.066286
     26          1           0        6.183748   -1.180347    0.145138
     27          1           0        5.799734   -2.590065    1.124303
     28          1           0        5.340365   -2.559207   -0.575797
     29          1           0        2.939781    4.162883    0.773224
     30          1           0        1.937297    4.769331   -0.541285
     31          1           0        1.174268    4.094283    0.895228
     32          1           0       -1.496457   -1.661855   -1.533430
     33          1           0       -1.403641   -2.290081    0.126061
     34          1           0       -3.210820    0.060148   -2.153122
     35          1           0       -2.984086   -1.471284    1.892766
     36          1           0       -5.417708    1.066863   -1.638148
     37          1           0       -5.191873   -0.457781    2.389959
     38          1           0       -6.411640    0.812092    0.630088
     39          1           0        1.994684   -2.181995   -1.074102
 ---------------------------------------------------------------------
                    Distance matrix (angstroms):
                    1          2          3          4          5
     1  S    0.000000
     2  O    2.556087   0.000000
     3  N    2.727549   2.358500   0.000000
     4  C    4.118090   2.864917   1.496718   0.000000
     5  C    3.108019   3.729938   1.499590   2.556252   0.000000
     6  C    4.845678   3.413514   2.501967   1.536331   3.421429
     7  C    3.663768   4.491216   2.502335   3.366430   1.535491
     8  C    1.741637   1.334306   1.336479   2.470040   2.477554
     9  C    6.254107   4.482382   3.840930   2.511172   4.747495
    10  C    4.710260   5.915085   3.841452   4.664840   2.507371
    11  C    1.824591   2.766582   4.128557   5.266209   4.845691
    12  C    2.543578   4.218460   5.222403   6.513183   5.611989
    13  C    3.314966   5.039002   5.940632   7.239769   6.225960
    14  C    3.315774   5.081756   5.916548   7.237696   6.157236
    15  C    4.466484   6.394135   7.134973   8.497419   7.233922
    16  C    4.467072   6.427738   7.115000   8.495649   7.175081
    17  C    4.943481   6.989936   7.653895   9.060792   7.661194
    18  H    4.829955   3.890871   2.136345   1.118757   2.606934
    19  H    4.376701   2.632943   2.152564   1.115006   3.405812
    20  H    4.119591   4.447435   2.130943   2.622575   1.117354
    21  H    2.720262   3.977195   2.158511   3.433179   1.116494
    22  H    5.071602   4.141530   2.786332   2.185568   3.236301
    23  H    4.523767   2.922129   2.729294   2.197334   3.831340
    24  H    4.392747   4.677034   2.740721   3.123179   2.189402
    25  H    3.139173   4.255184   2.776326   3.840190   2.191208
    26  H    6.814068   5.225371   4.200406   2.790952   4.868153
    27  H    6.929589   5.175618   4.665414   3.478322   5.508197
    28  H    6.427262   4.329940   4.173275   2.808633   5.294261
    29  H    5.465031   6.431902   4.173699   4.745332   2.793580
    30  H    5.386475   6.607570   4.665590   5.418029   3.474499
    31  H    4.515737   6.129068   4.194247   5.242943   2.791578
    32  H    2.463563   2.675442   4.372279   5.334654   5.263245
    33  H    2.464335   2.733892   4.348504   5.332758   5.204020
    34  H    3.439941   4.851932   5.807442   7.010746   6.183312
    35  H    3.441427   4.930752   5.763625   7.007049   6.059697
    36  H    5.266222   7.145009   7.837768   9.179719   7.892063
    37  H    5.267134   7.198483   7.805428   9.176836   7.795937
    38  H    5.975991   8.076789   8.664387  10.092198   8.578496
    39  H    3.504800   1.011843   2.545862   2.470088   4.038279
                    6          7          8          9         10
     6  C    0.000000
     7  C    4.585107   0.000000
     8  C    3.253152   3.296306   0.000000
     9  C    1.522570   5.715116   4.577699   0.000000
    10  C    5.701234   1.523538   4.649657   6.810216   0.000000
    11  C    5.817801   5.392957   2.834542   7.093781   6.499723
    12  C    7.097158   6.007268   4.043432   8.448729   6.866139
    13  C    8.038061   6.285873   4.826449   9.356304   7.066509
    14  C    7.603254   6.738354   4.829954   9.009895   7.425257
    15  C    9.279093   7.221996   6.090952  10.643157   7.786749
    16  C    8.906555   7.617581   6.093708  10.341129   8.112470
    17  C    9.668450   7.836529   6.635354  11.090447   8.280376
    18  H    2.191568   3.088931   3.330995   2.796710   4.221042
    19  H    2.202284   3.931959   2.678559   2.725667   5.351298
    20  H    3.159114   2.194263   3.316608   4.360135   2.749390
    21  H    4.040728   2.198255   2.670430   5.483588   2.764890
    22  H    1.111686   4.535587   3.696439   2.165499   5.406495
    23  H    1.108245   5.108076   3.027305   2.167909   6.280415
    24  H    4.479088   1.109460   3.674612   5.366909   2.166105
    25  H    5.148291   1.109765   3.125027   6.322071   2.165697
    26  H    2.191910   5.651378   5.149676   1.098567   6.620487
    27  H    2.174042   6.609428   5.325298   1.101709   7.623368
    28  H    2.196318   6.131984   4.702093   1.096525   7.363659
    29  H    5.604845   2.193393   5.186607   6.597969   1.097525
    30  H    6.582877   2.173897   5.399893   7.603332   1.100903
    31  H    6.149874   2.192727   4.809705   7.393500   1.097549
    32  H    6.023787   5.630673   3.065589   7.157563   6.861137
    33  H    5.596586   6.000774   3.069701   6.825490   7.132556
    34  H    7.957801   6.059981   4.719509   9.190064   6.942195
    35  H    7.156888   6.871409   4.725993   8.551784   7.579655
    36  H   10.072705   7.689927   6.839124  11.407366   8.193555
    37  H    9.455460   8.341486   6.843521  10.901925   8.737805
    38  H   10.703782   8.693718   7.687130  12.141207   9.012330
    39  H    2.884092   4.819596   2.004871   3.698944   6.280726
                   11         12         13         14         15
    11  C    0.000000
    12  C    1.492544   0.000000
    13  C    2.510563   1.405437   0.000000
    14  C    2.510583   1.405453   2.433386   0.000000
    15  C    3.791582   2.424761   1.396631   2.801612   0.000000
    16  C    3.791582   2.424759   2.801607   1.396617   2.423971
    17  C    4.292000   2.799474   2.423504   2.423509   1.399272
    18  H    6.155015   7.311635   7.930873   8.051781   9.140183
    19  H    5.245697   6.586497   7.220012   7.462306   8.544837
    20  H    5.809954   6.608691   7.296791   7.042795   8.282570
    21  H    4.491303   5.042812   5.735070   5.390185   6.623552
    22  H    6.229193   7.373741   8.357859   7.725709   9.511099
    23  H    5.218169   6.531147   7.582484   6.960450   8.828243
    24  H    5.996980   6.761010   6.996384   7.602986   8.010629
    25  H    4.753478   5.260495   5.366782   6.120295   6.295842
    26  H    7.827304   9.140977   9.967022   9.742068  11.236154
    27  H    7.681941   9.023001  10.031477   9.456149  11.296536
    28  H    7.057810   8.485383   9.336066   9.156864  10.674572
    29  H    7.280384   7.729944   8.040946   8.208995   8.780395
    30  H    7.101158   7.387727   7.390520   8.038929   8.039724
    31  H    6.292296   6.455209   6.669073   6.854539   7.247650
    32  H    1.109540   2.186430   2.704016   3.411281   4.076870
    33  H    1.109147   2.186114   3.410839   2.703967   4.574473
    34  H    2.729246   2.172515   1.089975   3.424824   2.154839
    35  H    2.729313   2.172526   3.424798   1.089927   3.891469
    36  H    4.668168   3.414786   2.159431   3.893349   1.091755
    37  H    4.668186   3.414792   3.893335   2.159431   3.412653
    38  H    5.384155   3.891639   3.412401   3.412399   2.162959
    39  H    3.749524   5.217338   6.019173   6.056660   7.385809
                   16         17         18         19         20
    16  C    0.000000
    17  C    1.399291   0.000000
    18  H    9.244876   9.738332   0.000000
    19  H    8.749727   9.232472   1.772777   0.000000
    20  H    8.060568   8.629777   2.406446   3.652645   0.000000
    21  H    6.328450   6.888866   3.655203   4.276158   1.778192
    22  H    8.962864   9.783699   2.519411   3.119743   2.683902
    23  H    8.302197   9.147489   3.120679   2.627257   3.773012
    24  H    8.543525   8.728487   2.584384   3.527273   2.568828
    25  H    6.946921   7.025665   3.779730   4.184448   3.120617
    26  H   11.037863  11.726752   2.619885   3.063947   4.330884
    27  H   10.790879  11.642418   3.797610   3.759834   5.028820
    28  H   10.518797  11.212021   3.210559   2.566083   5.089718
    29  H    8.933951   9.201615   4.136893   5.546222   2.574730
    30  H    8.637303   8.638032   4.891594   5.965601   3.768006
    31  H    7.418009   7.602450   4.970709   5.984066   3.122271
    32  H    4.574839   4.841062   6.214558   5.084572   6.256154
    33  H    4.076767   4.840825   6.327241   5.334043   6.040027
    34  H    3.891512   3.408252   7.652887   6.857981   7.289046
    35  H    2.154753   3.408193   7.874562   7.305231   6.829945
    36  H    3.412678   2.161805   9.756399   9.170604   8.963946
    37  H    1.091746   2.161793   9.930392   9.508175   8.596355
    38  H    2.162968   1.092170  10.735933  10.287748   9.527822
    39  H    7.416261   7.996849   3.522456   2.009349   4.568762
                   21         22         23         24         25
    21  H    0.000000
    22  H    3.724757   0.000000
    23  H    4.219529   1.763659   0.000000
    24  H    3.121758   4.565158   5.157474   0.000000
    25  H    2.567631   5.250063   5.505101   1.769365   0.000000
    26  H    5.720985   2.543400   3.100782   5.158216   6.375246
    27  H    6.119051   2.495238   2.502913   6.343905   7.246509
    28  H    6.066979   3.102481   2.555151   5.699571   6.598315
    29  H    3.144126   5.159460   6.304716   2.544525   3.099931
    30  H    3.780565   6.371056   7.196222   2.500119   2.497690
    31  H    2.589748   5.770989   6.588666   3.099767   2.544852
    32  H    5.115442   6.599710   5.466647   6.067138   4.907443
    33  H    4.833961   6.011168   4.824938   6.578658   5.514023
    34  H    5.874802   8.380809   7.580561   6.634905   5.061228
    35  H    5.261572   7.220795   6.431331   7.732364   6.405188
    36  H    7.346560  10.333988   9.682289   8.426569   6.694994
    37  H    6.868166   9.421856   8.815528   9.311484   7.756575
    38  H    7.767497  10.776472  10.195406   9.610757   7.880683
    39  H    4.482079   3.801855   2.443451   4.802541   4.741214
                   26         27         28         29         30
    26  H    0.000000
    27  H    1.758845   0.000000
    28  H    1.769830   1.761338   0.000000
    29  H    6.282350   7.341995   7.264238   0.000000
    30  H    7.341811   8.476633   8.080194   1.760877   0.000000
    31  H    7.312951   8.131907   7.986815   1.771053   1.761100
    32  H    7.876229   7.820455   6.961640   7.676486   7.357661
    33  H    7.668138   7.278399   6.785768   7.805439   7.838528
    34  H    9.750833   9.947624   9.081395   7.951467   7.160833
    35  H    9.337453   8.888065   8.750649   8.251631   8.312033
    36  H   11.950893  12.117560  11.402329   9.232967   8.307074
    37  H   11.617490  11.267828  11.141801   9.491479   9.313429
    38  H   12.761222  12.686078  12.285334   9.934655   9.313249
    39  H    4.476394   4.413379   3.403554   6.675575   6.971952
                   31         32         33         34         35
    31  H    0.000000
    32  H    6.794430   0.000000
    33  H    6.928011   1.776849   0.000000
    34  H    6.692957   2.507659   3.739538   0.000000
    35  H    7.018727   3.740077   2.507884   4.331963   0.000000
    36  H    7.683581   4.778397   5.522159   2.479723   4.983178
    37  H    7.967638   5.522579   4.778416   4.983212   2.479660
    38  H    8.269769   5.912719   5.912493   4.307775   4.307701
    39  H    6.628952   3.559437   3.605646   5.769641   5.839141
                   36         37         38         39
    36  H    0.000000
    37  H    4.312909   0.000000
    38  H    2.489519   2.489489   0.000000
    39  H    8.112754   8.162061   9.084883   0.000000
 Stoichiometry    C14H22NOS(1+)
 Framework group  C1[X(C14H22NOS)]
 Deg. of freedom   111
 Full point group                 C1      NOp   1
 Largest Abelian subgroup         C1      NOp   1
 Largest concise Abelian subgroup C1      NOp   1
                         Standard orientation:                         
 ---------------------------------------------------------------------
 Center     Atomic      Atomic             Coordinates (Angstroms)
 Number     Number       Type             X           Y           Z
 ---------------------------------------------------------------------
      1         16           0       -0.524169    0.008217   -0.005471
      2          8           0        1.091724   -1.775893   -0.865368
      3          7           0        2.200018    0.137632   -0.045229
      4          6           0        3.556589   -0.398557   -0.380461
      5          6           0        2.139781    1.492225    0.595255
      6          6           0        4.076080   -1.325393    0.729231
      7          6           0        2.025977    2.598643   -0.463339
      8          6           0        1.092601   -0.559377   -0.317224
      9          6           0        5.409883   -1.938881    0.325718
     10          6           0        2.020026    3.966534    0.207487
     11          6           0       -1.617032   -1.377845   -0.467654
     12          6           0       -2.942618   -0.764237   -0.161068
     13          6           0       -3.633206   -0.048717   -1.154231
     14          6           0       -3.505774   -0.908923    1.118471
     15          6           0       -4.877519    0.516070   -0.865651
     16          6           0       -4.750570   -0.340818    1.398253
     17          6           0       -5.436795    0.372111    0.408888
     18          1           0        4.256178    0.462333   -0.525588
     19          1           0        3.530915   -0.920062   -1.365657
     20          1           0        3.063484    1.628322    1.209039
     21          1           0        1.290770    1.542037    1.318620
     22          1           0        4.198205   -0.758348    1.677593
     23          1           0        3.345646   -2.125949    0.961141
     24          1           0        2.866802    2.539400   -1.184730
     25          1           0        1.102598    2.474531   -1.066286
     26          1           0        6.183748   -1.180347    0.145138
     27          1           0        5.799734   -2.590065    1.124303
     28          1           0        5.340365   -2.559207   -0.575797
     29          1           0        2.939781    4.162883    0.773224
     30          1           0        1.937297    4.769331   -0.541285
     31          1           0        1.174268    4.094283    0.895228
     32          1           0       -1.496457   -1.661855   -1.533430
     33          1           0       -1.403641   -2.290081    0.126061
     34          1           0       -3.210820    0.060148   -2.153122
     35          1           0       -2.984086   -1.471284    1.892766
     36          1           0       -5.417708    1.066863   -1.638148
     37          1           0       -5.191873   -0.457781    2.389959
     38          1           0       -6.411640    0.812092    0.630088
     39          1           0        1.994684   -2.181995   -1.074102
 ---------------------------------------------------------------------
 Rotational constants (GHZ):           0.7096986           0.1823768           0.1571915
 Standard basis: 6-31++G(d,p) (6D, 7F)
 There are   459 symmetry adapted cartesian basis functions of A   symmetry.
 There are   459 symmetry adapted basis functions of A   symmetry.
   459 basis functions,   744 primitive gaussians,   459 cartesian basis functions
    68 alpha electrons       68 beta electrons
       nuclear repulsion energy      1314.5569920085 Hartrees.
 NAtoms=   39 NActive=   39 NUniq=   39 SFac= 1.00D+00 NAtFMM=   60 NAOKFM=F Big=F
 Integral buffers will be    131072 words long.
 Raffenetti 2 integral format.
 Two-electron integral symmetry is turned on.
 Nuclear repulsion after empirical dispersion term =     1314.5210097040 Hartrees.
 One-electron integrals computed using PRISM.
 NBasis=   459 RedAO= T EigKep=  1.03D-06  NBF=   459
 NBsUse=   459 1.00D-06 EigRej= -1.00D+00 NBFU=   459
 ExpMin= 3.60D-02 ExpMax= 2.19D+04 ExpMxC= 3.30D+03 IAcc=3 IRadAn=         5 AccDes= 0.00D+00
 Harris functional with IExCor=  402 and IRadAn=       5 diagonalized for initial guess.
 HarFok:  IExCor=  402 AccDes= 0.00D+00 IRadAn=         5 IDoV= 1 UseB2=F ITyADJ=14
 ICtDFT=  3500011 ScaDFX=  1.000000  1.000000  1.000000  1.000000
 FoFCou: FMM=F IPFlag=           0 FMFlag=      100000 FMFlg1=           0
         NFxFlg=           0 DoJE=T BraDBF=F KetDBF=T FulRan=T
         wScrn=  0.000000 ICntrl=       500 IOpCl=  0 I1Cent=   200000004 NGrid=           0
         NMat0=    1 NMatS0=      1 NMatT0=    0 NMatD0=    1 NMtDS0=    0 NMtDT0=    0
 Petite list used in FoFCou.
 Requested convergence on RMS density matrix=1.00D-08 within  32 cycles.
 Requested convergence on MAX density matrix=1.00D-06.
 Requested convergence on             energy=1.00D-06.
 No special actions if energy rises.
 SCF Done:  E(RB3LYP) =  -1074.76834312     A.U. after   16 cycles
            NFock= 16  Conv=0.26D-08     -V/T= 2.0079
 QCSCF skips out because SCF is already converged.

 **********************************************************************

            Population analysis using the SCF density.

 **********************************************************************

 Orbital symmetries:
       Occupied  (A) (A) (A) (A) (A) (A) (A) (A) (A) (A) (A) (A)
                 (A) (A) (A) (A) (A) (A) (A) (A) (A) (A) (A) (A)
                 (A) (A) (A) (A) (A) (A) (A) (A) (A) (A) (A) (A)
                 (A) (A) (A) (A) (A) (A) (A) (A) (A) (A) (A) (A)
                 (A) (A) (A) (A) (A) (A) (A) (A) (A) (A) (A) (A)
                 (A) (A) (A) (A) (A) (A) (A) (A)
       Virtual   (A) (A) (A) (A) (A) (A) (A) (A) (A) (A) (A) (A)
                 (A) (A) (A) (A) (A) (A) (A) (A) (A) (A) (A) (A)
                 (A) (A) (A) (A) (A) (A) (A) (A) (A) (A) (A) (A)
                 (A) (A) (A) (A) (A) (A) (A) (A) (A) (A) (A) (A)
                 (A) (A) (A) (A) (A) (A) (A) (A) (A) (A) (A) (A)
                 (A) (A) (A) (A) (A) (A) (A) (A) (A) (A) (A) (A)
                 (A) (A) (A) (A) (A) (A) (A) (A) (A) (A) (A) (A)
                 (A) (A) (A) (A) (A) (A) (A) (A) (A) (A) (A) (A)
                 (A) (A) (A) (A) (A) (A) (A) (A) (A) (A) (A) (A)
                 (A) (A) (A) (A) (A) (A) (A) (A) (A) (A) (A) (A)
                 (A) (A) (A) (A) (A) (A) (A) (A) (A) (A) (A) (A)
                 (A) (A) (A) (A) (A) (A) (A) (A) (A) (A) (A) (A)
                 (A) (A) (A) (A) (A) (A) (A) (A) (A) (A) (A) (A)
                 (A) (A) (A) (A) (A) (A) (A) (A) (A) (A) (A) (A)
                 (A) (A) (A) (A) (A) (A) (A) (A) (A) (A) (A) (A)
                 (A) (A) (A) (A) (A) (A) (A) (A) (A) (A) (A) (A)
                 (A) (A) (A) (A) (A) (A) (A) (A) (A) (A) (A) (A)
                 (A) (A) (A) (A) (A) (A) (A) (A) (A) (A) (A) (A)
                 (A) (A) (A) (A) (A) (A) (A) (A) (A) (A) (A) (A)
                 (A) (A) (A) (A) (A) (A) (A) (A) (A) (A) (A) (A)
                 (A) (A) (A) (A) (A) (A) (A) (A) (A) (A) (A) (A)
                 (A) (A) (A) (A) (A) (A) (A) (A) (A) (A) (A) (A)
                 (A) (A) (A) (A) (A) (A) (A) (A) (A) (A) (A) (A)
                 (A) (A) (A) (A) (A) (A) (A) (A) (A) (A) (A) (A)
                 (A) (A) (A) (A) (A) (A) (A) (A) (A) (A) (A) (A)
                 (A) (A) (A) (A) (A) (A) (A) (A) (A) (A) (A) (A)
                 (A) (A) (A) (A) (A) (A) (A) (A) (A) (A) (A) (A)
                 (A) (A) (A) (A) (A) (A) (A) (A) (A) (A) (A) (A)
                 (A) (A) (A) (A) (A) (A) (A) (A) (A) (A) (A) (A)
                 (A) (A) (A) (A) (A) (A) (A) (A) (A) (A) (A) (A)
                 (A) (A) (A) (A) (A) (A) (A) (A) (A) (A) (A) (A)
                 (A) (A) (A) (A) (A) (A) (A) (A) (A) (A) (A) (A)
                 (A) (A) (A) (A) (A) (A) (A)
 The electronic state is 1-A.
 Alpha  occ. eigenvalues --  -89.06236 -19.39310 -14.56984 -10.50967 -10.39721
 Alpha  occ. eigenvalues --  -10.38528 -10.36491 -10.33697 -10.32427 -10.31905
 Alpha  occ. eigenvalues --  -10.30416 -10.30358 -10.30357 -10.29667 -10.29647
 Alpha  occ. eigenvalues --  -10.29568 -10.29343  -8.12134  -6.08722  -6.08136
 Alpha  occ. eigenvalues --   -6.07696  -1.27543  -1.13209  -0.98986  -0.95878
 Alpha  occ. eigenvalues --   -0.93763  -0.92355  -0.88607  -0.85250  -0.84196
 Alpha  occ. eigenvalues --   -0.83826  -0.80256  -0.77705  -0.74463  -0.73528
 Alpha  occ. eigenvalues --   -0.71410  -0.69979  -0.69099  -0.66753  -0.62979
 Alpha  occ. eigenvalues --   -0.62220  -0.61072  -0.60504  -0.59416  -0.58502
 Alpha  occ. eigenvalues --   -0.57584  -0.56951  -0.56320  -0.55297  -0.53367
 Alpha  occ. eigenvalues --   -0.52940  -0.52381  -0.52038  -0.51992  -0.50838
 Alpha  occ. eigenvalues --   -0.50219  -0.48920  -0.48657  -0.47749  -0.47346
 Alpha  occ. eigenvalues --   -0.46680  -0.46325  -0.45345  -0.45122  -0.44788
 Alpha  occ. eigenvalues --   -0.40396  -0.35812  -0.35774
 Alpha virt. eigenvalues --   -0.18819  -0.15630  -0.13886  -0.12467  -0.11409
 Alpha virt. eigenvalues --   -0.10735  -0.10532  -0.10360  -0.09269  -0.08577
 Alpha virt. eigenvalues --   -0.07955  -0.07696  -0.07645  -0.06974  -0.06460
 Alpha virt. eigenvalues --   -0.06036  -0.05293  -0.05017  -0.04533  -0.04343
 Alpha virt. eigenvalues --   -0.04041  -0.03755  -0.03435  -0.03224  -0.02753
 Alpha virt. eigenvalues --   -0.02545  -0.02254  -0.01950  -0.01535  -0.01183
 Alpha virt. eigenvalues --   -0.00814  -0.00699  -0.00216   0.00165   0.00386
 Alpha virt. eigenvalues --    0.00559   0.00726   0.01045   0.02011   0.02188
 Alpha virt. eigenvalues --    0.02317   0.02628   0.02701   0.02984   0.03475
 Alpha virt. eigenvalues --    0.03589   0.03805   0.03974   0.04420   0.04493
 Alpha virt. eigenvalues --    0.04905   0.05091   0.05220   0.05522   0.05704
 Alpha virt. eigenvalues --    0.05882   0.06132   0.06251   0.06467   0.06657
 Alpha virt. eigenvalues --    0.06939   0.07156   0.07268   0.07623   0.07878
 Alpha virt. eigenvalues --    0.07948   0.08365   0.08502   0.08572   0.09071
 Alpha virt. eigenvalues --    0.09109   0.09271   0.09538   0.09571   0.09759
 Alpha virt. eigenvalues --    0.10282   0.10610   0.10732   0.11189   0.11414
 Alpha virt. eigenvalues --    0.11736   0.12224   0.12546   0.13137   0.13340
 Alpha virt. eigenvalues --    0.14030   0.14528   0.14762   0.14883   0.15686
 Alpha virt. eigenvalues --    0.15737   0.15946   0.16452   0.16556   0.16859
 Alpha virt. eigenvalues --    0.17153   0.17938   0.18052   0.18809   0.19338
 Alpha virt. eigenvalues --    0.19740   0.19991   0.20369   0.20882   0.20928
 Alpha virt. eigenvalues --    0.21264   0.21947   0.22180   0.22475   0.23154
 Alpha virt. eigenvalues --    0.23426   0.23825   0.23926   0.24683   0.25287
 Alpha virt. eigenvalues --    0.25944   0.26509   0.27331   0.27666   0.28938
 Alpha virt. eigenvalues --    0.29193   0.29442   0.29966   0.30577   0.30716
 Alpha virt. eigenvalues --    0.31333   0.31575   0.32295   0.33588   0.35461
 Alpha virt. eigenvalues --    0.35941   0.42872   0.44493   0.46364   0.48470
 Alpha virt. eigenvalues --    0.50193   0.51529   0.51847   0.53521   0.53819
 Alpha virt. eigenvalues --    0.55315   0.56319   0.58198   0.58503   0.59630
 Alpha virt. eigenvalues --    0.60169   0.60621   0.61015   0.61949   0.62220
 Alpha virt. eigenvalues --    0.62692   0.62788   0.63201   0.63665   0.64039
 Alpha virt. eigenvalues --    0.64663   0.65325   0.65757   0.66411   0.66988
 Alpha virt. eigenvalues --    0.67472   0.68055   0.69860   0.70065   0.71754
 Alpha virt. eigenvalues --    0.72077   0.73120   0.73820   0.75121   0.76995
 Alpha virt. eigenvalues --    0.78667   0.79792   0.80662   0.81641   0.82383
 Alpha virt. eigenvalues --    0.83563   0.84455   0.86294   0.86886   0.87386
 Alpha virt. eigenvalues --    0.88413   0.88538   0.89704   0.90182   0.90481
 Alpha virt. eigenvalues --    0.91002   0.91627   0.91944   0.92397   0.93379
 Alpha virt. eigenvalues --    0.93697   0.94271   0.95796   0.96584   1.00043
 Alpha virt. eigenvalues --    1.00422   1.01015   1.01699   1.02297   1.03202
 Alpha virt. eigenvalues --    1.03583   1.03894   1.04289   1.04826   1.06111
 Alpha virt. eigenvalues --    1.07081   1.07561   1.07786   1.08995   1.09869
 Alpha virt. eigenvalues --    1.11959   1.13826   1.14254   1.15229   1.15917
 Alpha virt. eigenvalues --    1.16762   1.18251   1.21390   1.24615   1.26601
 Alpha virt. eigenvalues --    1.27534   1.29027   1.29444   1.29766   1.30292
 Alpha virt. eigenvalues --    1.31425   1.31686   1.33511   1.34183   1.34395
 Alpha virt. eigenvalues --    1.36856   1.38690   1.39176   1.40561   1.42488
 Alpha virt. eigenvalues --    1.43632   1.44738   1.45603   1.51066   1.55773
 Alpha virt. eigenvalues --    1.57407   1.58201   1.62061   1.64423   1.64827
 Alpha virt. eigenvalues --    1.66907   1.69152   1.70381   1.71100   1.71193
 Alpha virt. eigenvalues --    1.73163   1.73893   1.75207   1.76484   1.76542
 Alpha virt. eigenvalues --    1.79491   1.80018   1.80471   1.82829   1.83064
 Alpha virt. eigenvalues --    1.83649   1.85361   1.87755   1.89243   1.89659
 Alpha virt. eigenvalues --    1.90660   1.91143   1.91753   1.93240   1.94628
 Alpha virt. eigenvalues --    1.96670   1.97246   1.97800   1.98612   1.98858
 Alpha virt. eigenvalues --    1.99861   2.00923   2.01669   2.03267   2.03443
 Alpha virt. eigenvalues --    2.04583   2.04867   2.05519   2.09043   2.10061
 Alpha virt. eigenvalues --    2.11116   2.11758   2.12733   2.14729   2.15425
 Alpha virt. eigenvalues --    2.16632   2.18522   2.18678   2.19521   2.20114
 Alpha virt. eigenvalues --    2.21654   2.22235   2.26257   2.27060   2.28897
 Alpha virt. eigenvalues --    2.28997   2.29055   2.30098   2.31144   2.31583
 Alpha virt. eigenvalues --    2.35004   2.35911   2.36932   2.37187   2.38900
 Alpha virt. eigenvalues --    2.40771   2.41225   2.42132   2.43843   2.44880
 Alpha virt. eigenvalues --    2.45917   2.46749   2.47817   2.48850   2.49231
 Alpha virt. eigenvalues --    2.51383   2.53918   2.53981   2.56324   2.57776
 Alpha virt. eigenvalues --    2.57883   2.60218   2.61378   2.61688   2.62793
 Alpha virt. eigenvalues --    2.64296   2.66354   2.66541   2.68417   2.69795
 Alpha virt. eigenvalues --    2.70664   2.70711   2.70868   2.72747   2.74810
 Alpha virt. eigenvalues --    2.75376   2.76330   2.78143   2.78612   2.79767
 Alpha virt. eigenvalues --    2.83562   2.86979   2.92328   2.95034   2.99262
 Alpha virt. eigenvalues --    3.08479   3.11715   3.13511   3.14198   3.15773
 Alpha virt. eigenvalues --    3.17667   3.19146   3.19438   3.20958   3.21589
 Alpha virt. eigenvalues --    3.22551   3.26979   3.28172   3.33337   3.35632
 Alpha virt. eigenvalues --    3.36047   3.36159   3.36648   3.37040   3.37832
 Alpha virt. eigenvalues --    3.41990   3.42821   3.43995   3.79780   3.85174
 Alpha virt. eigenvalues --    4.12933   4.20985   4.23314   4.26456   4.28959
 Alpha virt. eigenvalues --    4.29814   4.31764   4.36307   4.38730   4.39886
 Alpha virt. eigenvalues --    4.41415   4.43447   4.45391   4.55933   4.62692
 Alpha virt. eigenvalues --    4.75169
          Condensed to atoms (all electrons):
               1          2          3          4          5          6
     1  S   18.542024  -0.257661  -0.060400  -0.372156  -0.018285   0.046290
     2  O   -0.257661   8.009745  -0.072981   0.068267   0.021952   0.002764
     3  N   -0.060400  -0.072981   7.111764   0.133149  -0.038416  -0.002580
     4  C   -0.372156   0.068267   0.133149   6.954871  -0.554429  -0.537688
     5  C   -0.018285   0.021952  -0.038416  -0.554429   7.171185   0.102882
     6  C    0.046290   0.002764  -0.002580  -0.537688   0.102882   6.132123
     7  C    0.021127  -0.016248   0.103404   0.139136  -0.702056  -0.032251
     8  C   -2.620273   0.388326   0.098850  -0.385001  -0.302293   0.115013
     9  C   -0.005039   0.006062  -0.045204   0.293638  -0.057893  -0.211396
    10  C    0.066256  -0.001623  -0.033726  -0.034891   0.184242  -0.011321
    11  C   -0.347951  -0.056438  -0.038121  -0.074707  -0.121574   0.001984
    12  C    0.609887   0.032267   0.022009  -0.021225   0.014350  -0.001738
    13  C    0.061943  -0.001960  -0.000463   0.036148   0.033930  -0.003742
    14  C   -0.419433   0.005399  -0.013562   0.015007  -0.021061   0.004051
    15  C    0.013180   0.002579  -0.002305  -0.005494  -0.022094   0.000130
    16  C    0.107620   0.002229  -0.000408  -0.004723  -0.000117  -0.000010
    17  C   -0.033807  -0.000482   0.000484   0.002826   0.004357   0.000031
    18  H   -0.016434   0.002984  -0.047149   0.335925   0.051621  -0.002629
    19  H   -0.006215  -0.006203  -0.040182   0.460163  -0.037306  -0.110132
    20  H   -0.043439   0.002136  -0.059740   0.093417   0.389385  -0.041112
    21  H    0.022782  -0.000352  -0.058697  -0.075513   0.487262   0.022969
    22  H    0.001906   0.000202   0.002805   0.026313  -0.044547   0.302170
    23  H   -0.003150   0.002884   0.024215  -0.088632   0.053649   0.389118
    24  H    0.002788   0.001116   0.005603  -0.042192  -0.017150   0.006113
    25  H   -0.018017  -0.002775   0.022757   0.049625  -0.057256  -0.005878
    26  H    0.000607  -0.000060  -0.000433  -0.000147   0.008436  -0.068751
    27  H   -0.000446   0.000310  -0.001254   0.002137  -0.000807  -0.050419
    28  H    0.000454  -0.000088  -0.003648   0.025856  -0.006297  -0.105903
    29  H    0.003707  -0.000120   0.000849   0.005440  -0.004606  -0.000404
    30  H    0.004410   0.000021   0.000185  -0.002081   0.007520  -0.000026
    31  H   -0.005329   0.000111  -0.002915  -0.000538   0.005810  -0.000804
    32  H   -0.018029  -0.000090  -0.001544  -0.010219  -0.005147   0.002825
    33  H    0.036766   0.001013   0.002285  -0.000873   0.004726  -0.001865
    34  H    0.023625   0.000916  -0.000493   0.001742   0.004971  -0.000143
    35  H    0.015191   0.000370  -0.000322   0.002938   0.000130  -0.000068
    36  H    0.001346  -0.000007   0.000032  -0.000121  -0.000363   0.000005
    37  H    0.002606   0.000021  -0.000002  -0.000162  -0.000138  -0.000009
    38  H   -0.000617  -0.000004   0.000013   0.000025   0.000078   0.000001
    39  H    0.046444   0.162799  -0.022244  -0.008095   0.012222  -0.012377
               7          8          9         10         11         12
     1  S    0.021127  -2.620273  -0.005039   0.066256  -0.347951   0.609887
     2  O   -0.016248   0.388326   0.006062  -0.001623  -0.056438   0.032267
     3  N    0.103404   0.098850  -0.045204  -0.033726  -0.038121   0.022009
     4  C    0.139136  -0.385001   0.293638  -0.034891  -0.074707  -0.021225
     5  C   -0.702056  -0.302293  -0.057893   0.184242  -0.121574   0.014350
     6  C   -0.032251   0.115013  -0.211396  -0.011321   0.001984  -0.001738
     7  C    6.216448  -0.072202  -0.000857  -0.155408   0.024394  -0.002562
     8  C   -0.072202   9.378196  -0.122974  -0.132881   0.373930  -0.916325
     9  C   -0.000857  -0.122974   5.497713  -0.000621  -0.004383  -0.000530
    10  C   -0.155408  -0.132881  -0.000621   5.516026  -0.001137   0.005594
    11  C    0.024394   0.373930  -0.004383  -0.001137   9.706198  -4.209874
    12  C   -0.002562  -0.916325  -0.000530   0.005594  -4.209874  16.673575
    13  C   -0.006980   0.487513   0.000716   0.000539   0.656376  -3.931027
    14  C   -0.001628   0.344730   0.000492  -0.005869   1.036296  -4.670371
    15  C    0.005132  -0.155467  -0.000083   0.000008  -0.461163   1.534109
    16  C   -0.000641  -0.113603  -0.000074   0.002184  -0.559166   1.779579
    17  C   -0.000801   0.091287   0.000044  -0.000798   0.212844  -1.438358
    18  H   -0.030525   0.049615  -0.019615   0.008558   0.001640  -0.001050
    19  H    0.018880  -0.037712   0.028007   0.000307  -0.003902   0.004050
    20  H   -0.044256   0.012461   0.015503  -0.017700  -0.014458  -0.000282
    21  H   -0.103698   0.005015  -0.005489   0.018106   0.010882  -0.002232
    22  H    0.005813   0.016622   0.004244   0.001444   0.001675   0.001280
    23  H   -0.004555  -0.046857  -0.021259   0.000371  -0.002132  -0.002047
    24  H    0.332625   0.037429  -0.002086  -0.009424   0.001420  -0.000717
    25  H    0.372152  -0.030640   0.002363  -0.003034  -0.007406  -0.013420
    26  H   -0.001127  -0.002157   0.436387  -0.000435  -0.000148  -0.000077
    27  H   -0.000528  -0.003064   0.423563  -0.000143   0.000170  -0.000106
    28  H    0.000355  -0.002140   0.444604   0.000114  -0.000146   0.000410
    29  H   -0.086864  -0.007994  -0.000073   0.457958   0.000289   0.000205
    30  H   -0.049205  -0.004423  -0.000227   0.417818   0.000250   0.000634
    31  H   -0.079400   0.007813   0.000137   0.433621  -0.000250  -0.000372
    32  H   -0.001723  -0.066396  -0.000904   0.000154   0.320568   0.084746
    33  H    0.002137  -0.010949  -0.000695   0.000073   0.263244   0.057926
    34  H   -0.002083   0.011715   0.000043   0.000336  -0.048332   0.046046
    35  H    0.000465   0.016273   0.000146  -0.000388  -0.043278   0.028190
    36  H    0.000175  -0.003488  -0.000001   0.000012  -0.028795   0.115271
    37  H   -0.000020  -0.003997  -0.000004   0.000062  -0.029745   0.126666
    38  H   -0.000017   0.000967   0.000000  -0.000003   0.010035   0.006201
    39  H   -0.002027   0.029115  -0.013745   0.000026   0.009724  -0.017453
              13         14         15         16         17         18
     1  S    0.061943  -0.419433   0.013180   0.107620  -0.033807  -0.016434
     2  O   -0.001960   0.005399   0.002579   0.002229  -0.000482   0.002984
     3  N   -0.000463  -0.013562  -0.002305  -0.000408   0.000484  -0.047149
     4  C    0.036148   0.015007  -0.005494  -0.004723   0.002826   0.335925
     5  C    0.033930  -0.021061  -0.022094  -0.000117   0.004357   0.051621
     6  C   -0.003742   0.004051   0.000130  -0.000010   0.000031  -0.002629
     7  C   -0.006980  -0.001628   0.005132  -0.000641  -0.000801  -0.030525
     8  C    0.487513   0.344730  -0.155467  -0.113603   0.091287   0.049615
     9  C    0.000716   0.000492  -0.000083  -0.000074   0.000044  -0.019615
    10  C    0.000539  -0.005869   0.000008   0.002184  -0.000798   0.008558
    11  C    0.656376   1.036296  -0.461163  -0.559166   0.212844   0.001640
    12  C   -3.931027  -4.670371   1.534109   1.779579  -1.438358  -0.001050
    13  C   19.128222  -9.045786  -3.065997   0.696752   0.824369   0.000246
    14  C   -9.045786  20.712097   0.445829  -3.745158   1.088414   0.000322
    15  C   -3.065997   0.445829   7.375376   0.637104  -0.325671   0.000030
    16  C    0.696752  -3.745158   0.637104   7.594512  -0.396444  -0.000078
    17  C    0.824369   1.088414  -0.325671  -0.396444   5.783450   0.000011
    18  H    0.000246   0.000322   0.000030  -0.000078   0.000011   0.512701
    19  H   -0.000401   0.002515   0.000067  -0.000558   0.000127  -0.046754
    20  H    0.006266  -0.003021  -0.001175   0.000140   0.000444  -0.003399
    21  H   -0.007627   0.004539  -0.003539  -0.000262   0.000467   0.005965
    22  H   -0.000585   0.000463   0.000126   0.000068  -0.000054  -0.009761
    23  H    0.002044  -0.002786  -0.000283  -0.000132   0.000056   0.006298
    24  H   -0.000006  -0.000454  -0.000391   0.000071  -0.000023   0.014829
    25  H    0.018346  -0.008983  -0.003448  -0.000204   0.000665  -0.000822
    26  H    0.000012  -0.000038  -0.000006   0.000006   0.000000  -0.001280
    27  H   -0.000026   0.000133   0.000003  -0.000014   0.000002   0.000525
    28  H    0.000006  -0.000075   0.000005   0.000002  -0.000002   0.003510
    29  H   -0.000395   0.000333   0.000119  -0.000066  -0.000005  -0.000713
    30  H   -0.001199   0.000441   0.000325  -0.000016  -0.000025   0.000150
    31  H    0.002463  -0.001320  -0.000885   0.000090  -0.000006   0.000929
    32  H   -0.304993   0.227407   0.078185  -0.059124  -0.004026   0.000484
    33  H    0.189811  -0.305689  -0.051209   0.080896  -0.008066  -0.000114
    34  H    0.244925   0.053747  -0.084777   0.009294   0.000233  -0.000006
    35  H   -0.002904   0.325382   0.022009  -0.094082  -0.002265   0.000039
    36  H   -0.165717   0.019617   0.387473   0.029418  -0.070516   0.000001
    37  H    0.027008  -0.196141   0.030970   0.402175  -0.075450  -0.000002
    38  H    0.019385   0.028437  -0.053320  -0.055967   0.347420  -0.000000
    39  H   -0.000906   0.002479   0.000498  -0.000133   0.000100   0.006538
              19         20         21         22         23         24
     1  S   -0.006215  -0.043439   0.022782   0.001906  -0.003150   0.002788
     2  O   -0.006203   0.002136  -0.000352   0.000202   0.002884   0.001116
     3  N   -0.040182  -0.059740  -0.058697   0.002805   0.024215   0.005603
     4  C    0.460163   0.093417  -0.075513   0.026313  -0.088632  -0.042192
     5  C   -0.037306   0.389385   0.487262  -0.044547   0.053649  -0.017150
     6  C   -0.110132  -0.041112   0.022969   0.302170   0.389118   0.006113
     7  C    0.018880  -0.044256  -0.103698   0.005813  -0.004555   0.332625
     8  C   -0.037712   0.012461   0.005015   0.016622  -0.046857   0.037429
     9  C    0.028007   0.015503  -0.005489   0.004244  -0.021259  -0.002086
    10  C    0.000307  -0.017700   0.018106   0.001444   0.000371  -0.009424
    11  C   -0.003902  -0.014458   0.010882   0.001675  -0.002132   0.001420
    12  C    0.004050  -0.000282  -0.002232   0.001280  -0.002047  -0.000717
    13  C   -0.000401   0.006266  -0.007627  -0.000585   0.002044  -0.000006
    14  C    0.002515  -0.003021   0.004539   0.000463  -0.002786  -0.000454
    15  C    0.000067  -0.001175  -0.003539   0.000126  -0.000283  -0.000391
    16  C   -0.000558   0.000140  -0.000262   0.000068  -0.000132   0.000071
    17  C    0.000127   0.000444   0.000467  -0.000054   0.000056  -0.000023
    18  H   -0.046754  -0.003399   0.005965  -0.009761   0.006298   0.014829
    19  H    0.616601   0.009584  -0.009585   0.013566  -0.025196  -0.011404
    20  H    0.009584   0.574587  -0.070556   0.000802   0.004783  -0.026746
    21  H   -0.009585  -0.070556   0.587872  -0.007205   0.002084   0.016591
    22  H    0.013566   0.000802  -0.007205   0.570951  -0.057540  -0.000820
    23  H   -0.025196   0.004783   0.002084  -0.057540   0.613663  -0.000676
    24  H   -0.011404  -0.026746   0.016591  -0.000820  -0.000676   0.587125
    25  H    0.003039   0.018679  -0.031914  -0.001318   0.000571  -0.063384
    26  H   -0.009018   0.001282   0.000842  -0.022816   0.017049   0.000423
    27  H    0.002891  -0.000007   0.000081  -0.002434  -0.002684  -0.000085
    28  H    0.007836  -0.000398  -0.000330   0.016910  -0.019942  -0.000049
    29  H    0.000821   0.002153  -0.004376   0.000316   0.000065  -0.020351
    30  H    0.000023  -0.000163   0.001479  -0.000047   0.000026  -0.002929
    31  H   -0.000141  -0.001143   0.005686   0.000238  -0.000078   0.013540
    32  H    0.001252  -0.001376   0.000462   0.000356  -0.000006  -0.000683
    33  H   -0.001761   0.000784   0.000995  -0.000201  -0.000216   0.000465
    34  H    0.000028   0.000181   0.001126  -0.000013   0.000010   0.000139
    35  H    0.000287   0.000202  -0.001469  -0.000004  -0.000124  -0.000052
    36  H    0.000001  -0.000021  -0.000136   0.000002  -0.000003  -0.000009
    37  H   -0.000008  -0.000024   0.000074   0.000006  -0.000000  -0.000000
    38  H    0.000001   0.000006   0.000006  -0.000001   0.000001  -0.000001
    39  H   -0.001726  -0.001021   0.001124   0.001211   0.003694   0.000990
              25         26         27         28         29         30
     1  S   -0.018017   0.000607  -0.000446   0.000454   0.003707   0.004410
     2  O   -0.002775  -0.000060   0.000310  -0.000088  -0.000120   0.000021
     3  N    0.022757  -0.000433  -0.001254  -0.003648   0.000849   0.000185
     4  C    0.049625  -0.000147   0.002137   0.025856   0.005440  -0.002081
     5  C   -0.057256   0.008436  -0.000807  -0.006297  -0.004606   0.007520
     6  C   -0.005878  -0.068751  -0.050419  -0.105903  -0.000404  -0.000026
     7  C    0.372152  -0.001127  -0.000528   0.000355  -0.086864  -0.049205
     8  C   -0.030640  -0.002157  -0.003064  -0.002140  -0.007994  -0.004423
     9  C    0.002363   0.436387   0.423563   0.444604  -0.000073  -0.000227
    10  C   -0.003034  -0.000435  -0.000143   0.000114   0.457958   0.417818
    11  C   -0.007406  -0.000148   0.000170  -0.000146   0.000289   0.000250
    12  C   -0.013420  -0.000077  -0.000106   0.000410   0.000205   0.000634
    13  C    0.018346   0.000012  -0.000026   0.000006  -0.000395  -0.001199
    14  C   -0.008983  -0.000038   0.000133  -0.000075   0.000333   0.000441
    15  C   -0.003448  -0.000006   0.000003   0.000005   0.000119   0.000325
    16  C   -0.000204   0.000006  -0.000014   0.000002  -0.000066  -0.000016
    17  C    0.000665   0.000000   0.000002  -0.000002  -0.000005  -0.000025
    18  H   -0.000822  -0.001280   0.000525   0.003510  -0.000713   0.000150
    19  H    0.003039  -0.009018   0.002891   0.007836   0.000821   0.000023
    20  H    0.018679   0.001282  -0.000007  -0.000398   0.002153  -0.000163
    21  H   -0.031914   0.000842   0.000081  -0.000330  -0.004376   0.001479
    22  H   -0.001318  -0.022816  -0.002434   0.016910   0.000316  -0.000047
    23  H    0.000571   0.017049  -0.002684  -0.019942   0.000065   0.000026
    24  H   -0.063384   0.000423  -0.000085  -0.000049  -0.020351  -0.002929
    25  H    0.595868   0.000218  -0.000029  -0.000056   0.014134  -0.004771
    26  H    0.000218   0.537814  -0.022052  -0.041723  -0.000065  -0.000003
    27  H   -0.000029  -0.022052   0.487133  -0.020961   0.000011   0.000000
    28  H   -0.000056  -0.041723  -0.020961   0.549823  -0.000009  -0.000008
    29  H    0.014134  -0.000065   0.000011  -0.000009   0.548135  -0.020680
    30  H   -0.004771  -0.000003   0.000000  -0.000008  -0.020680   0.491833
    31  H   -0.015429  -0.000037  -0.000006   0.000018  -0.041415  -0.021586
    32  H   -0.001188  -0.000080   0.000055  -0.000022   0.000145   0.000101
    33  H    0.000754   0.000065  -0.000146   0.000054  -0.000095  -0.000055
    34  H   -0.001650   0.000001   0.000001  -0.000002  -0.000017  -0.000035
    35  H    0.000283  -0.000009   0.000016   0.000005   0.000013   0.000004
    36  H    0.000062  -0.000000  -0.000000   0.000000   0.000003   0.000004
    37  H   -0.000044   0.000000  -0.000000   0.000000   0.000001   0.000001
    38  H    0.000014   0.000000   0.000000  -0.000000  -0.000000   0.000000
    39  H   -0.001700   0.000179  -0.000241  -0.000811  -0.000136   0.000018
              31         32         33         34         35         36
     1  S   -0.005329  -0.018029   0.036766   0.023625   0.015191   0.001346
     2  O    0.000111  -0.000090   0.001013   0.000916   0.000370  -0.000007
     3  N   -0.002915  -0.001544   0.002285  -0.000493  -0.000322   0.000032
     4  C   -0.000538  -0.010219  -0.000873   0.001742   0.002938  -0.000121
     5  C    0.005810  -0.005147   0.004726   0.004971   0.000130  -0.000363
     6  C   -0.000804   0.002825  -0.001865  -0.000143  -0.000068   0.000005
     7  C   -0.079400  -0.001723   0.002137  -0.002083   0.000465   0.000175
     8  C    0.007813  -0.066396  -0.010949   0.011715   0.016273  -0.003488
     9  C    0.000137  -0.000904  -0.000695   0.000043   0.000146  -0.000001
    10  C    0.433621   0.000154   0.000073   0.000336  -0.000388   0.000012
    11  C   -0.000250   0.320568   0.263244  -0.048332  -0.043278  -0.028795
    12  C   -0.000372   0.084746   0.057926   0.046046   0.028190   0.115271
    13  C    0.002463  -0.304993   0.189811   0.244925  -0.002904  -0.165717
    14  C   -0.001320   0.227407  -0.305689   0.053747   0.325382   0.019617
    15  C   -0.000885   0.078185  -0.051209  -0.084777   0.022009   0.387473
    16  C    0.000090  -0.059124   0.080896   0.009294  -0.094082   0.029418
    17  C   -0.000006  -0.004026  -0.008066   0.000233  -0.002265  -0.070516
    18  H    0.000929   0.000484  -0.000114  -0.000006   0.000039   0.000001
    19  H   -0.000141   0.001252  -0.001761   0.000028   0.000287   0.000001
    20  H   -0.001143  -0.001376   0.000784   0.000181   0.000202  -0.000021
    21  H    0.005686   0.000462   0.000995   0.001126  -0.001469  -0.000136
    22  H    0.000238   0.000356  -0.000201  -0.000013  -0.000004   0.000002
    23  H   -0.000078  -0.000006  -0.000216   0.000010  -0.000124  -0.000003
    24  H    0.013540  -0.000683   0.000465   0.000139  -0.000052  -0.000009
    25  H   -0.015429  -0.001188   0.000754  -0.001650   0.000283   0.000062
    26  H   -0.000037  -0.000080   0.000065   0.000001  -0.000009  -0.000000
    27  H   -0.000006   0.000055  -0.000146   0.000001   0.000016  -0.000000
    28  H    0.000018  -0.000022   0.000054  -0.000002   0.000005   0.000000
    29  H   -0.041415   0.000145  -0.000095  -0.000017   0.000013   0.000003
    30  H   -0.021586   0.000101  -0.000055  -0.000035   0.000004   0.000004
    31  H    0.535930  -0.000302   0.000315   0.000066   0.000010  -0.000005
    32  H   -0.000302   0.549828  -0.061941  -0.004873   0.007954   0.002215
    33  H    0.000315  -0.061941   0.544025   0.005715  -0.008668  -0.000296
    34  H    0.000066  -0.004873   0.005715   0.627568  -0.004119  -0.017638
    35  H    0.000010   0.007954  -0.008668  -0.004119   0.624826   0.001808
    36  H   -0.000005   0.002215  -0.000296  -0.017638   0.001808   0.601852
    37  H   -0.000006  -0.000468   0.002477   0.001674  -0.018096  -0.002343
    38  H   -0.000003  -0.000158  -0.000340  -0.002637  -0.002478  -0.013405
    39  H    0.000111   0.000352  -0.000107  -0.000141  -0.000169  -0.000014
              37         38         39
     1  S    0.002606  -0.000617   0.046444
     2  O    0.000021  -0.000004   0.162799
     3  N   -0.000002   0.000013  -0.022244
     4  C   -0.000162   0.000025  -0.008095
     5  C   -0.000138   0.000078   0.012222
     6  C   -0.000009   0.000001  -0.012377
     7  C   -0.000020  -0.000017  -0.002027
     8  C   -0.003997   0.000967   0.029115
     9  C   -0.000004   0.000000  -0.013745
    10  C    0.000062  -0.000003   0.000026
    11  C   -0.029745   0.010035   0.009724
    12  C    0.126666   0.006201  -0.017453
    13  C    0.027008   0.019385  -0.000906
    14  C   -0.196141   0.028437   0.002479
    15  C    0.030970  -0.053320   0.000498
    16  C    0.402175  -0.055967  -0.000133
    17  C   -0.075450   0.347420   0.000100
    18  H   -0.000002  -0.000000   0.006538
    19  H   -0.000008   0.000001  -0.001726
    20  H   -0.000024   0.000006  -0.001021
    21  H    0.000074   0.000006   0.001124
    22  H    0.000006  -0.000001   0.001211
    23  H   -0.000000   0.000001   0.003694
    24  H   -0.000000  -0.000001   0.000990
    25  H   -0.000044   0.000014  -0.001700
    26  H    0.000000   0.000000   0.000179
    27  H   -0.000000   0.000000  -0.000241
    28  H    0.000000  -0.000000  -0.000811
    29  H    0.000001  -0.000000  -0.000136
    30  H    0.000001   0.000000   0.000018
    31  H   -0.000006  -0.000003   0.000111
    32  H   -0.000468  -0.000158   0.000352
    33  H    0.002477  -0.000340  -0.000107
    34  H    0.001674  -0.002637  -0.000141
    35  H   -0.018096  -0.002478  -0.000169
    36  H   -0.002343  -0.013405  -0.000014
    37  H    0.602969  -0.013711  -0.000011
    38  H   -0.013711   0.593545  -0.000001
    39  H   -0.000011  -0.000001   0.403670
 Mulliken charges:
               1
     1  S    0.615727
     2  O   -0.297382
     3  N    0.018385
     4  C   -0.427735
     5  C   -0.546875
     6  C    0.072780
     7  C    0.155418
     8  C   -0.424036
     9  C   -0.640508
    10  C   -0.704407
    11  C   -0.578815
    12  C    0.086768
    13  C    0.103691
    14  C    0.123244
    15  C   -0.295952
    16  C   -0.311161
    17  C   -0.000831
    18  H    0.177407
    19  H    0.178159
    20  H    0.197241
    21  H    0.186571
    22  H    0.177855
    23  H    0.157716
    24  H    0.178367
    25  H    0.173834
    26  H    0.167140
    27  H    0.188420
    28  H    0.152648
    29  H    0.153691
    30  H    0.182236
    31  H    0.165083
    32  H    0.266202
    33  H    0.258759
    34  H    0.132857
    35  H    0.131956
    36  H    0.143581
    37  H    0.143674
    38  H    0.136526
    39  H    0.401765
 Sum of Mulliken charges =   1.00000
 Mulliken charges with hydrogens summed into heavy atoms:
               1
     1  S    0.615727
     2  O    0.104383
     3  N    0.018385
     4  C   -0.072169
     5  C   -0.163063
     6  C    0.408351
     7  C    0.507619
     8  C   -0.424036
     9  C   -0.132300
    10  C   -0.203398
    11  C   -0.053854
    12  C    0.086768
    13  C    0.236549
    14  C    0.255200
    15  C   -0.152371
    16  C   -0.167486
    17  C    0.135696
 Electronic spatial extent (au):  <R**2>=           6994.0232
 Charge=              1.0000 electrons
 Dipole moment (field-independent basis, Debye):
    X=              6.0776    Y=             -1.1648    Z=             -0.6391  Tot=              6.2212
 Quadrupole moment (field-independent basis, Debye-Ang):
   XX=            -51.0530   YY=            -93.7690   ZZ=           -102.2447
   XY=             -5.3544   XZ=             -2.0281   YZ=              0.9037
 Traceless Quadrupole moment (field-independent basis, Debye-Ang):
   XX=             31.3025   YY=            -11.4134   ZZ=            -19.8891
   XY=             -5.3544   XZ=             -2.0281   YZ=              0.9037
 Octapole moment (field-independent basis, Debye-Ang**2):
  XXX=             43.8906  YYY=              4.3143  ZZZ=             -3.9649  XYY=             52.0907
  XXY=             -0.7295  XXZ=             14.3482  XZZ=             -3.5744  YZZ=             -7.2268
  YYZ=             -5.5203  XYZ=             13.2873
 Hexadecapole moment (field-independent basis, Debye-Ang**3):
 XXXX=          -5960.4083 YYYY=          -1605.6466 ZZZZ=           -487.9737 XXXY=           -326.4411
 XXXZ=            -61.3464 YYYX=             -0.3470 YYYZ=              9.1248 ZZZX=            -13.1161
 ZZZY=              0.8692 XXYY=          -1417.9367 XXZZ=          -1182.9443 YYZZ=           -358.2726
 XXYZ=            -36.2489 YYXZ=             -4.9258 ZZXY=            -11.0501
 N-N= 1.314521009704D+03 E-N=-5.123547865981D+03  KE= 1.066373907283D+03
 Merz-Kollman atomic radii used.

 **********************************************************************

            Electrostatic Properties Using The SCF Density

 **********************************************************************

       Atomic Center    1 is at  -0.524169  0.008217 -0.005471
       Atomic Center    2 is at   1.091724 -1.775893 -0.865368
       Atomic Center    3 is at   2.200018  0.137632 -0.045229
       Atomic Center    4 is at   3.556589 -0.398557 -0.380461
       Atomic Center    5 is at   2.139781  1.492225  0.595255
       Atomic Center    6 is at   4.076080 -1.325393  0.729231
       Atomic Center    7 is at   2.025977  2.598643 -0.463339
       Atomic Center    8 is at   1.092601 -0.559377 -0.317224
       Atomic Center    9 is at   5.409883 -1.938881  0.325718
       Atomic Center   10 is at   2.020026  3.966534  0.207487
       Atomic Center   11 is at  -1.617032 -1.377845 -0.467654
       Atomic Center   12 is at  -2.942618 -0.764237 -0.161068
       Atomic Center   13 is at  -3.633206 -0.048717 -1.154231
       Atomic Center   14 is at  -3.505774 -0.908923  1.118471
       Atomic Center   15 is at  -4.877519  0.516070 -0.865651
       Atomic Center   16 is at  -4.750570 -0.340818  1.398253
       Atomic Center   17 is at  -5.436795  0.372111  0.408888
       Atomic Center   18 is at   4.256178  0.462333 -0.525588
       Atomic Center   19 is at   3.530915 -0.920062 -1.365657
       Atomic Center   20 is at   3.063484  1.628322  1.209039
       Atomic Center   21 is at   1.290770  1.542037  1.318620
       Atomic Center   22 is at   4.198205 -0.758348  1.677593
       Atomic Center   23 is at   3.345646 -2.125949  0.961141
       Atomic Center   24 is at   2.866802  2.539400 -1.184730
       Atomic Center   25 is at   1.102598  2.474531 -1.066286
       Atomic Center   26 is at   6.183748 -1.180347  0.145138
       Atomic Center   27 is at   5.799734 -2.590065  1.124303
       Atomic Center   28 is at   5.340365 -2.559207 -0.575797
       Atomic Center   29 is at   2.939781  4.162883  0.773224
       Atomic Center   30 is at   1.937297  4.769331 -0.541285
       Atomic Center   31 is at   1.174268  4.094283  0.895228
       Atomic Center   32 is at  -1.496457 -1.661855 -1.533430
       Atomic Center   33 is at  -1.403641 -2.290081  0.126061
       Atomic Center   34 is at  -3.210820  0.060148 -2.153122
       Atomic Center   35 is at  -2.984086 -1.471284  1.892766
       Atomic Center   36 is at  -5.417708  1.066863 -1.638148
       Atomic Center   37 is at  -5.191873 -0.457781  2.389959
       Atomic Center   38 is at  -6.411640  0.812092  0.630088
       Atomic Center   39 is at   1.994684 -2.181995 -1.074102
    1570 points will be used for fitting atomic charges
 Fitting point charges to electrostatic potential
 The dipole moment will be constrained to the correct value
 Charges from ESP fit, RMS=   0.00139 RRMS=   0.01401:
 ESP charges:
               1
     1  S    0.000508
     2  O   -0.490808
     3  N   -0.317588
     4  C   -0.065711
     5  C   -0.184907
     6  C    0.061774
     7  C    0.258441
     8  C    0.539686
     9  C   -0.328682
    10  C   -0.315523
    11  C   -0.568452
    12  C    0.375979
    13  C   -0.252032
    14  C   -0.270960
    15  C   -0.058181
    16  C   -0.046562
    17  C   -0.151093
[...]
 001853,0.00002511,-0.00002546,0.00000969,0.00000818,0.00001066,0.00000
 192,-0.00000591,0.00000922,-0.00000448,0.00000950,-0.00045376,-0.00007
 026,-0.00028361,-0.00000376,0.00000003,0.00000484,-0.00001094,0.000004
 61,0.00000010,-0.00117871,-0.00174946,-0.00164632,0.00348559,0.0005755
 3,0.00147380,0.00102297,0.00520822,0.00157026,0.07351286,-0.10259971,0
 .10025018,-0.00037023,-0.00059648,-0.00048310,0.00421601,-0.00075817,0
 .00825665,0.00385911,0.00549902,0.00054977,-0.00000628,0.00000459,0.00
 000275,0.00000397,-0.00000488,-0.00000365,-0.00000574,0.00000019,0.000
 00413,-0.00001388,-0.00000726,0.00001311,-0.00000635,-0.00000344,-0.00
 000350,-0.00000075,0.00000478,0.00000174,0.00000198,0.00000067,-0.0000
 0731,-0.00000308,0.00000316,-0.00000157,0.00000130,0.00000003,-0.00000
 038,0.00000279,0.00000013,0.00000112,0.00000144,-0.00000091,-0.0000037
 5,-0.00000010,-0.00000212,0.00000111,0.00000229,0.00000268,-0.00000299
 ,0.00000539,-0.00000568,0.00000047,0.00026305,0.00008353,-0.00006449,-
 0.00003113,-0.00010578,0.00029392,0.00027077,0.00047388,0.00027222,-0.
 08250029,0.09829764,-0.00021306,0.00006214,-0.00000112,-0.00005898,0.0
 0000387,0.00001918,-0.00016676,-0.00008032,-0.00003128,0.00004467,-0.0
 0002204,-0.00002240,-0.00000120,0.00005677,0.00001960,-0.00000300,0.00
 000962,0.00001856,-0.00000069,0.00000111,-0.00002285,0.00046556,-0.000
 02005,-0.00000946,0.00000368,-0.00000119,-0.00001115,-0.00000043,0.000
 00136,0.00001722,-0.00173496,0.00008620,0.00012872,-0.01608887,0.01325
 587,-0.01579564,0.00456637,0.00131777,-0.00301548,-0.09896111,0.099552
 16,-0.20139179,0.00058083,-0.00056684,-0.00010081,0.00444386,-0.003403
 18,0.00806349,0.00240947,0.00110130,0.00154349,-0.00000915,0.00000233,
 0.00000107,-0.00000189,0.00000461,-0.00000302,-0.00000816,-0.00000918,
 0.00000362,0.00000170,0.00000713,0.00001156,0.00000111,-0.00000188,0.0
 0000041,-0.00000144,-0.00000775,0.00000092,-0.00000187,-0.00000215,0.0
 0000058,-0.00000259,0.00000575,-0.00000488,-0.00000304,-0.00000177,0.0
 0000234,-0.00000363,0.00000360,0.00000086,0.00000054,0.00000049,0.0000
 0084,-0.00000006,-0.00000077,-0.00000231,-0.00000232,-0.00000896,-0.00
 000113,0.00000067,0.00000273,-0.00000351,0.00000923,-0.00028904,0.0002
 6847,0.00115719,-0.00082043,-0.00022622,-0.00077342,0.00081577,-0.0008
 0684,0.10498402,-0.10934252,0.21087302,0.00000313,0.00016508,0.0000535
 9,-0.00005237,-0.00001314,0.00000673,-0.00012884,-0.00003058,0.0000028
 6,0.00002098,-0.00002414,-0.00001651,0.00000187,0.00004279,0.00001102,
 -0.00000573,0.00000282,0.00001200,-0.00000669,0.00000128,-0.00001917,0
 .00013536,-0.00002536,-0.00003424,0.00000243,0.00000104,-0.00000698,-0
 .00000069,-0.00000015,0.00001296,-0.00032818,0.00083630,-0.00104750,-0
 .00309541,0.00313088,0.00308177,-0.01028922,0.01319068,-0.02244148,-0.
 00063681,-0.00031145,0.00078140,-0.13190966,0.07412338,-0.10350276,0.0
 0034316,0.00159409,0.00365418,0.01095003,-0.00662668,0.01087182,-0.000
 01042,0.00000336,-0.00000049,-0.00000074,0.00000389,-0.00000286,-0.000
 00491,-0.00000773,0.00000268,-0.00000356,0.00000300,0.00000793,0.00000
 076,-0.00000062,-0.00000014,-0.00000055,-0.00000413,0.00000100,-0.0000
 0052,-0.00000194,0.00000074,0.00000114,0.00000875,-0.00000365,-0.00000
 161,-0.00000085,0.00000073,-0.00000267,0.00000159,0.00000060,0.0000006
 2,0.00000045,0.00000069,0.00000355,-0.00000139,-0.00000045,-0.00000488
 ,-0.00000819,-0.00000024,-0.00000125,0.00000232,-0.00000614,0.00001842
 ,-0.00005182,-0.00001277,-0.00045259,0.00008344,0.00003094,-0.00000784
 ,-0.00159335,-0.00031741,-0.00008509,-0.00035236,-0.00022512,0.1350804
 7,0.00005245,-0.00009720,-0.00003262,0.00004282,-0.00003955,-0.0000210
 3,0.00008009,-0.00001907,-0.00000295,-0.00001839,0.00001409,0.00001995
 ,-0.00000352,-0.00000501,-0.00000747,0.00000645,0.00000085,-0.00001087
 ,-0.00000517,0.00000004,0.00000441,-0.00006058,0.00010680,0.00000475,-
 0.00000157,-0.00000129,0.00000811,-0.00000164,0.00000017,-0.00000068,-
 0.00006114,0.00010416,0.00052391,0.00379014,0.00556900,0.00069744,0.00
 410904,-0.00095013,0.00763429,-0.00034012,-0.00052766,-0.00048622,0.07
 409100,-0.10237201,0.09949260,0.00143523,0.00589802,0.00197809,0.00247
 501,0.00211430,0.00183795,0.00000441,-0.00000145,0.00000018,0.00000163
 ,-0.00000173,0.00000066,0.00000375,0.00000156,-0.00000011,0.00000064,0
 .00000053,-0.00000572,-0.00000090,0.00000016,-0.00000134,-0.00000064,0
 .00000136,0.00000006,0.00000470,-0.00000074,-0.00000074,0.00000090,0.0
 0000086,0.00000479,-0.00000007,0.00000056,-0.00000097,0.00000312,-0.00
 000168,-0.00000004,-0.00000023,-0.00000012,-0.00000170,0.00000339,-0.0
 0000119,0.00000164,-0.00000298,0.00000078,0.00000073,-0.00000046,-0.00
 000026,-0.00000463,0.00000722,0.00002241,-0.00004240,0.00000748,-0.000
 06840,0.00000118,-0.00147371,-0.00300903,-0.00132507,-0.00035314,-0.00
 084938,-0.00026754,-0.08232120,0.09702545,-0.00004850,-0.00002468,-0.0
 0000848,-0.00000221,-0.00000055,-0.00000680,-0.00003323,-0.00001725,-0
 .00000111,0.00000654,-0.00000538,0.00000128,-0.00000106,0.00001333,0.0
 0000213,0.00000020,0.00000064,0.00000237,0.00000053,0.00000167,-0.0000
 0380,0.00005528,0.00000017,-0.00002371,0.00000085,0.00000031,-0.000001
 31,-0.00000164,0.00000106,0.00000524,0.00037613,-0.00010218,0.00037538
 ,0.00253081,0.00087982,0.00154863,0.00497657,-0.00371096,0.00827528,0.
 00085199,-0.00056731,-0.00026436,-0.10359322,0.09971145,-0.20634999,0.
 00414847,0.00173822,-0.00323873,-0.01643647,0.01311478,-0.01481756,-0.
 00000222,0.00000136,0.00000093,-0.00000054,0.00000013,0.00000004,-0.00
 000099,-0.00000168,0.00000020,0.00000084,0.00000247,0.00000101,0.00000
 032,0.00000039,-0.00000070,-0.00000059,-0.00000121,0.00000011,0.000001
 66,-0.00000148,0.00000049,-0.00000173,0.00000267,0.00000106,-0.0000005
 7,-0.00000049,0.00000041,-0.00000035,0.00000045,-0.00000012,0.00000006
 ,-0.00000010,0.00000007,0.00000151,-0.00000115,-0.00000086,-0.00000215
 ,-0.00000216,0.00000104,-0.00000018,0.00000164,-0.00000395,-0.00003239
 ,-0.00000331,-0.00002142,0.00005027,-0.00006995,-0.00001312,-0.0007353
 5,-0.00117562,0.00035788,-0.00022002,-0.00024642,-0.00005909,0.1092325
 0,-0.10889805,0.21475746,0.00001540,0.00015664,0.00006113,-0.00005190,
 -0.00000588,-0.00001403,-0.00012384,-0.00002124,-0.00001746,0.00002333
 ,-0.00001918,-0.00001516,-0.00000711,0.00003213,0.00002391,-0.00000758
 ,-0.00000170,0.00001480,0.00000593,-0.00000253,-0.00001186,0.00012827,
 -0.00003249,0.00001665,0.00000113,0.00000363,-0.00000845,-0.00000569,0
 .00000262,0.00001099,-0.00020896,-0.00005386,0.00139986,-0.00338007,0.
 00421713,0.00024403,-0.00083432,0.00027542,-0.00068169,-0.00738682,-0.
 00492332,0.02719516,-0.00046196,0.00386412,-0.00202061,-0.10446147,-0.
 00911424,0.10751761,0.01098888,0.00254716,-0.01606277,-0.00000775,0.00
 000360,0.00000012,-0.00000141,-0.00000061,-0.00000387,-0.00000778,-0.0
 0000521,0.00000191,0.00000053,0.00000120,0.00001228,-0.00000154,-0.000
 00286,-0.00000125,0.00000075,-0.00000066,0.00000331,-0.00000016,-0.000
 00045,-0.00000159,-0.00000341,0.00000458,-0.00000353,0.00000024,-0.000
 00042,0.00000108,-0.00000415,0.00000232,0.00000055,0.00000063,-0.00000
 118,-0.00000013,-0.00000117,-0.00000173,-0.00000182,0.00000026,-0.0000
 0389,-0.00000199,0.00000311,-0.00000025,-0.00000118,-0.00045319,0.0000
 6730,0.00008129,0.00002097,-0.00004443,-0.00002735,-0.00006308,-0.0004
 2271,-0.00004923,-0.00000354,-0.00146737,-0.00070682,0.00040289,0.0001
 1954,-0.00085110,0.10582367,-0.00000016,-0.00008360,-0.00003798,0.0000
 2802,-0.00003642,-0.00000648,0.00003400,-0.00002214,-0.00001649,-0.000
 00826,0.00001789,-0.00000294,-0.00000490,-0.00000064,0.00000771,0.0000
 0191,0.00000372,-0.00000311,0.00000150,0.00000036,0.00000172,-0.000002
 85,0.00005190,0.00006565,-0.00000192,-0.00000065,0.00000282,-0.0000053
 8,0.00000149,0.00000377,0.00012357,0.00043190,-0.00043794,0.00437688,0
 .00503557,0.00144308,0.00028912,-0.00091207,-0.00015350,0.00462305,0.0
 0488810,-0.01006209,0.00404229,0.00421532,0.00356580,-0.00916920,-0.04
 849628,0.04134808,-0.00692785,0.00215899,0.01307917,0.00000382,-0.0000
 0219,0.00000003,0.00000092,-0.00000223,-0.00000060,0.00000206,0.000002
 02,-0.00000115,0.00000063,0.00000125,-0.00000220,-0.00000014,-0.000000
 13,-0.00000091,-0.00000103,-0.00000042,-0.00000037,0.00000280,-0.00000
 097,-0.00000173,-0.00000132,-0.00000052,0.00000254,-0.00000042,-0.0000
 0024,-0.00000008,0.00000206,-0.00000037,0.00000048,0.00000033,0.000000
 22,-0.00000156,0.00000093,-0.00000081,0.,0.00000016,0.00000047,-0.0000
 0058,0.00000190,-0.00000072,-0.00000198,0.00001627,-0.00007759,-0.0000
 5891,-0.00000932,-0.00002154,0.00004642,-0.00041598,-0.00080453,-0.000
 29090,-0.00162850,-0.00296513,-0.00123095,-0.00037048,-0.00003226,0.00
 064469,0.00641610,0.03952200,0.00006786,-0.00005955,-0.00003204,0.0000
 3456,-0.00002413,-0.00000764,0.00009226,0.00000321,-0.00000139,-0.0000
 2020,0.00001688,0.00001174,-0.00000027,-0.00001879,-0.00000830,0.00000
 475,0.00000098,-0.00001046,-0.00000460,-0.00000093,0.00000585,-0.00009
 682,0.00007007,0.00003097,-0.00000212,-0.00000156,0.00000688,0.0000008
 1,-0.00000106,-0.00000552,-0.00029845,0.00014303,-0.00006781,0.0010985
 4,0.00130764,0.00236681,-0.00075776,-0.00006604,0.00032299,-0.00005208
 ,0.00132109,-0.00046175,-0.00251068,0.00380378,-0.00076251,0.10757637,
 0.04112270,-0.28767539,0.01111170,0.00178053,-0.01490715,0.00000580,-0
 .00000262,-0.00000052,0.00000130,-0.00000156,0.00000054,0.00000420,0.0
 0000291,-0.00000028,0.00000136,-0.00000140,-0.00000598,-0.00000035,0.0
 0000024,0.,-0.00000020,0.00000183,-0.00000034,0.00000160,0.00000050,-0
 .00000034,0.00000131,-0.00000142,0.00000352,0.00000036,0.00000062,-0.0
 0000107,0.00000295,-0.00000168,0.00000014,-0.00000023,0.00000039,-0.00
 000119,0.00000146,0.00000031,0.00000193,-0.00000060,0.00000241,0.00000
 005,-0.00000069,-0.00000113,-0.00000020,0.00001603,0.00000254,-0.00000
 724,0.00003025,0.00001131,0.00001953,-0.00005290,-0.00031362,-0.000123
 26,-0.00030384,-0.00138816,0.00030532,0.00059000,0.00001868,-0.0007824
 9,-0.11578254,-0.04659822,0.30152514,-0.00007075,0.00004903,0.00001897
 ,-0.00002754,0.00000590,0.00000080,-0.00009203,-0.00001914,-0.00000336
 ,0.00001713,-0.00001395,-0.00001271,-0.00000083,0.00002684,0.00001250,
 -0.00000364,0.00000104,0.00000973,0.00000427,0.00000172,-0.00000777,0.
 00012284,-0.00004856,-0.00001893,0.00000192,0.00000138,-0.00000567,-0.
 00000346,0.00000182,0.00000943,-0.00016749,-0.00022085,-0.00005479,0.0
 0062586,-0.00051362,-0.00032023,0.00174897,0.00136272,0.00279873,0.001
 18073,0.00319874,-0.00190102,-0.00682015,0.00459971,-0.00015680,-0.009
 68645,0.00404668,0.00500274,-0.30068984,0.09305503,0.04968050,-0.00000
 590,0.00000209,0.00000082,-0.00000109,0.00000091,-0.00000131,-0.000003
 80,-0.00000352,0.00000052,-0.00000071,0.00000287,0.00000495,0.00000065
 ,-0.00000028,-0.00000031,-0.00000049,-0.00000246,0.00000038,-0.0000001
 1,-0.00000162,-0.00000031,-0.00000208,0.00000312,-0.00000211,-0.000000
 85,-0.00000094,0.00000113,-0.00000220,0.00000170,0.00000016,0.00000034
 ,-0.00000014,0.00000049,0.00000012,-0.00000115,-0.00000200,-0.00000118
 ,-0.00000382,0.00000032,0.00000099,0.00000217,-0.00000297,0.00001408,-
 0.00002058,-0.00002661,0.00002531,-0.00003869,0.00000537,-0.00040820,0
 .00019360,-0.00008797,-0.00055031,0.00013054,0.00027534,0.00006055,-0.
 00158501,-0.00027388,0.00005532,-0.00142021,-0.00075091,0.31467121,-0.
 00016871,-0.00000802,0.00001208,0.00001831,-0.00001317,-0.00001085,-0.
 00001247,0.00001483,0.00001198,-0.00001178,-0.00000302,0.,-0.00000392,
 0.00000925,0.00000167,-0.00000036,-0.00000051,-0.00000014,-0.00000146,
 0.00000078,-0.00000112,-0.00006758,-0.00008791,-0.00004220,-0.00000066
 ,0.00000070,0.00000084,-0.00000344,0.00000109,0.00000376,-0.00037495,-
 0.00063749,-0.00026965,-0.00033537,-0.00072332,0.00027960,0.00142382,0
 .00581281,0.00268930,0.00302664,0.00457862,0.00421819,-0.00454458,0.00
 546534,0.00133615,0.01344228,-0.00042570,-0.00353092,0.09293014,-0.074
 34650,-0.01131817,-0.00000284,0.00000178,0.00000070,0.00000096,-0.0000
 0090,-0.00000002,-0.00000117,-0.00000117,0.00000144,-0.00000217,0.0000
 0148,0.00000171,-0.00000078,-0.00000036,-0.00000084,-0.00000002,0.0000
 0114,0.00000010,0.00000187,-0.00000127,-0.00000113,-0.00000059,0.00000
 240,0.00000128,0.00000027,-0.00000002,-0.00000023,0.00000039,-0.000000
 06,0.00000042,0.00000012,-0.00000006,-0.00000086,0.00000198,-0.0000010
 4,0.00000014,-0.00000175,-0.00000097,0.00000013,0.00000057,0.00000054,
 -0.00000338,0.00006014,0.00003474,-0.00012730,0.00002639,-0.00002260,0
 .00011254,-0.00026292,0.00005621,0.00008260,0.00066495,-0.00023782,-0.
 00022025,-0.00144061,-0.00289695,-0.00128632,-0.00157150,-0.00287975,-
 0.00113953,-0.10278982,0.06630283,-0.00005883,0.00000115,-0.00001497,0
 .00000785,-0.00000399,-0.00000184,0.00000066,0.00000926,-0.00000066,-0
 .00000563,0.00000155,-0.00000421,0.00000077,0.00000106,-0.00000053,-0.
 00000038,0.00000137,-0.00000051,-0.00000379,0.00000054,-0.00000176,-0.
 00002944,-0.00004327,0.00001935,-0.00000046,-0.00000052,0.00000063,-0.
 00000043,-0.00000063,0.00000157,-0.00011772,-0.00028108,0.00006924,-0.
 00025392,0.00028767,-0.00129694,0.00242159,0.00288900,-0.00424419,-0.0
 0156201,0.00401286,-0.00245715,0.02708793,-0.00992956,-0.00021498,-0.0
 2215062,0.00775073,0.00854107,0.04963419,-0.01132452,-0.06714981,-0.00
 000027,0.,-0.00000008,0.00000084,0.00000009,0.00000010,-0.00000007,-0.
 00000010,0.00000083,-0.00000050,0.00000108,0.00000034,0.00000025,-0.00
 000016,0.,0.00000003,-0.00000025,-0.00000015,0.00000090,-0.00000063,0.
 ,-0.00000006,-0.00000021,0.00000068,-0.00000011,0.00000006,0.,0.000000
 44,0.00000002,0.00000019,-0.00000011,0.00000016,-0.00000031,0.00000041
 ,0.00000031,0.00000039,-0.00000026,-0.00000013,-0.00000038,0.00000023,
 -0.00000003,-0.00000067,-0.00005498,0.00004708,-0.00000142,0.00008730,
 -0.00005651,0.00004439,0.00138113,-0.00053861,-0.00018769,-0.00116540,
 0.00040580,0.00024662,-0.00070606,-0.00112278,0.00026652,-0.00032137,-
 0.00130315,0.00025927,-0.05419136,0.00919296,0.06612957,0.00216416,-0.
 00178565,-0.00052432,-0.42228856,0.17555279,0.06103389,-0.00386692,-0.
 00489435,-0.00227082,0.00292234,-0.00323157,-0.00553862,-0.00085781,-0
 .00000807,0.00080463,-0.00191075,0.00006760,-0.00013989,0.00004514,-0.
 00011267,-0.00055699,0.00448318,0.00452396,0.00257843,-0.00003277,0.00
 006720,-0.00023443,-0.00004931,-0.00005875,0.00021329,-0.00049133,0.00
 027429,0.00009590,-0.00005286,-0.00002754,0.00001746,0.00001911,0.0000
 1145,-0.00001670,0.00000553,0.00001170,0.00002170,-0.00000295,0.000009
 88,-0.00002263,0.00000672,-0.00003143,0.00002062,0.00001070,-0.0000035
 4,-0.00000735,-0.00020232,0.00066104,0.00148110,-0.00211647,-0.0007547
 0,0.00339677,0.00009126,-0.00041268,-0.00031385,-0.00016610,0.00015396
 ,0.00002099,0.00052109,0.00016707,0.00033443,-0.00007015,0.00026472,-0
 .00123203,-0.00006140,-0.00004972,0.00011430,-0.00003643,0.00007445,-0
 .00002161,0.00009016,0.00003061,0.00003544,0.00000958,0.00003862,0.000
 11763,-0.00026760,0.00015261,0.00012888,-0.00001098,-0.00001716,-0.000
 03155,0.00001115,-0.00006615,-0.00004353,0.00000092,0.00001955,0.00000
 422,0.00015049,0.00011036,0.00007513,0.00004096,0.00014699,0.00001905,
 -0.00001384,0.00001337,-0.00002227,-0.00001102,-0.00000136,0.00002433,
 0.00000485,-0.00000856,0.00000387,0.00000559,-0.00000037,-0.00000822,0
 .00000879,0.00000061,-0.00000074,0.42191786,-0.00170189,-0.00216591,-0
 .00281669,0.13298841,-0.09730449,-0.03539687,0.00041921,0.00188318,0.0
 0129444,-0.00076463,-0.00041819,-0.00299424,0.00043127,-0.00112312,-0.
 00023130,0.00007066,0.00134806,-0.00108211,0.00008301,0.00017065,0.000
 23327,0.04168518,-0.02375615,-0.00864500,-0.00013110,-0.00014785,0.000
 53814,-0.00002791,0.00000782,-0.00016665,-0.00064632,0.00016133,0.0003
 6262,-0.00006593,0.00005051,0.00004087,-0.00007495,-0.00005570,0.00003
 934,-0.00006477,0.00004246,-0.00006894,-0.00000719,0.00000280,0.000017
 46,-0.00003212,0.00001335,0.00000825,-0.00002524,0.00000211,0.00001191
 ,0.00019332,0.00051717,0.00125372,-0.00156154,0.00090706,0.00216362,-0
 .00003834,0.00036048,0.00008755,0.00000076,0.00027328,0.00010101,-0.00
 003009,-0.00050027,0.00034384,-0.00031833,-0.00010591,0.00047596,-0.00
 006289,-0.00005524,0.00003407,0.00000578,-0.00000620,-0.00003587,-0.00
 009693,-0.00006672,-0.00008421,0.00019634,-0.00006015,0.00000248,0.000
 15327,0.00006295,-0.00019640,0.00000493,-0.00001446,0.00001657,-0.0000
 0379,0.00007534,0.00001056,-0.00000926,0.00001360,0.00003630,0.0001662
 4,0.00016753,0.00028459,0.00013207,0.00018927,-0.00013340,0.00002729,0
 .00001650,0.00002017,0.00002203,0.00000650,0.00000619,-0.00000898,0.00
 001401,0.00000098,-0.00001579,0.00001000,0.00000973,-0.00000324,0.0000
 0405,0.00000340,-0.17088857,0.11948034,-0.00081749,-0.00257988,0.00290
 592,0.04198052,-0.03259079,-0.01822664,0.00045006,0.00130968,-0.000242
 65,-0.00128967,-0.00003471,0.00325592,0.00021602,-0.00001498,-0.001080
 60,-0.00151241,-0.00211242,0.00028269,0.00004493,0.00024269,0.00042458
 ,0.01867670,-0.01175142,-0.00655759,0.00013143,0.00093442,0.00009278,-
 0.00000186,0.00008043,-0.00020261,-0.00030239,0.00022103,-0.00043240,0
 .00000211,0.00003279,0.00006328,-0.00001803,0.00000035,0.00004659,-0.0
 0006392,-0.00007052,-0.00000779,-0.00002154,0.00003677,0.00000124,0.00
 003002,0.00003785,-0.00000281,-0.00001921,-0.00001842,-0.00001917,-0.0
 0002243,0.00003950,-0.00068679,0.00133858,-0.00013621,-0.00048436,0.00
 001038,-0.00004903,-0.00001646,0.00000850,-0.00010977,-0.00001471,0.00
 042258,0.00066474,-0.00032369,-0.00021018,0.00156296,-0.00148201,0.000
 05199,0.00001062,0.00000331,-0.00004740,0.00001226,-0.00000739,0.00034
 739,-0.00013096,-0.00011097,-0.00001771,-0.00005555,-0.00004781,0.0000
 0905,-0.00018664,-0.00006136,-0.00000710,-0.00002064,-0.00000034,0.,0.
 00006895,0.00003205,0.00000336,-0.00001579,0.00000686,0.00015334,0.000
 00232,0.00007884,0.00002289,0.00012799,0.00000988,0.00001048,0.0000023
 2,-0.00001664,0.00001040,0.00002478,-0.00001691,-0.00001217,0.00000349
 ,0.00000010,0.00000113,0.00000187,0.00000221,-0.00000184,0.00000531,-0
 .00000254,-0.05955654,0.04445462,0.02283800\\-0.00000038,0.00000611,0.
 00000230,0.00000523,-0.00002405,-0.00000922,0.00000692,0.00000024,0.00
 000185,-0.00000453,-0.00000222,-0.00000559,-0.00000992,-0.00000188,-0.
 00000696,0.00001673,-0.00000771,-0.00000167,-0.00000016,0.00001220,0.0
 0000697,0.00000901,0.00002569,0.00001185,-0.00001003,-0.00000033,0.000
 00750,0.00000075,-0.00000582,-0.00000850,0.00000186,-0.00001266,-0.000
 00468,-0.00000827,-0.00000104,-0.00000024,0.00000153,0.00000190,-0.000
 00197,0.00000127,0.00000046,0.00000283,-0.00000153,0.00000044,0.000000
 37,-0.00000106,0.00000046,0.00000016,0.00000018,-0.00000082,-0.0000009
 0,0.00000057,-0.00000385,0.00000300,-0.00000019,0.00000393,0.00000051,
 -0.00000147,0.00000076,0.00000065,0.00000093,-0.00000279,0.00000002,-0
 .00000362,0.00000131,-0.00000061,-0.00000104,0.00000257,0.00000182,0.0
 0000017,-0.00000399,0.00000039,0.00000141,-0.00000062,-0.00000106,0.00
 000016,0.00000079,-0.00000241,-0.00000008,0.00000238,-0.00000091,0.000
 00155,0.00000048,-0.00000090,-0.00000064,0.00000022,0.00000117,-0.0000
 0070,-0.00000197,0.00000102,0.00000003,-0.00000047,0.00000174,-0.00000
 115,0.00000499,0.00000261,-0.00000129,0.00000522,0.00000124,0.00000100
 ,-0.00000190,0.00000045,0.00000075,-0.00000090,-0.00000182,0.00000113,
 -0.00000100,-0.00000012,0.00000085,-0.00000035,-0.00000103,0.00000144,
 0.00000041,-0.00000020,-0.00000741,0.00000383,0.00000036\\\@


 IT IS DOUBTED WHETHER A MAN EVER BRINGS HIS FACULTIES TO BEAR WITH THEIR FULL FORCE
 ON A SUBJECT UNTIL HE WRITES UPON IT.

                          -- CICERO
 Job cpu time:       0 days  3 hours 51 minutes 47.6 seconds.
 Elapsed time:       0 days  0 hours 28 minutes 59.0 seconds.
 File lengths (MBytes):  RWF=    788 Int=      0 D2E=      0 Chk=     19 Scr=      1
 Normal termination of Gaussian 16 at Mon Jul 30 20:52:39 2018.
