 Entering Gaussian System, Link 0=g16
 Initial command:
 /opt/software/gaussian/g16.a03/l1.exe "/localscratch/cieritan.6775387.0/Gau-18603.inp" -scrdir="/localscratch/cieritan.6775387.0/"
 Entering Link 1 = /opt/software/gaussian/g16.a03/l1.exe PID=     18604.
  
 Copyright (c) 1988,1990,1992,1993,1995,1998,2003,2009,2016,
            Gaussian, Inc.  All Rights Reserved.
  
 This is part of the Gaussian(R) 16 program.  It is based on
 the Gaussian(R) 09 system (copyright 2009, Gaussian, Inc.),
 the Gaussian(R) 03 system (copyright 2003, Gaussian, Inc.),
 the Gaussian(R) 98 system (copyright 1998, Gaussian, Inc.),
 the Gaussian(R) 94 system (copyright 1995, Gaussian, Inc.),
 the Gaussian 92(TM) system (copyright 1992, Gaussian, Inc.),
 the Gaussian 90(TM) system (copyright 1990, Gaussian, Inc.),
 the Gaussian 88(TM) system (copyright 1988, Gaussian, Inc.),
 the Gaussian 86(TM) system (copyright 1986, Carnegie Mellon
 University), and the Gaussian 82(TM) system (copyright 1983,
 Carnegie Mellon University). Gaussian is a federally registered
 trademark of Gaussian, Inc.
  
 This software contains proprietary and confidential information,
 including trade secrets, belonging to Gaussian, Inc.
  
 This software is provided under written license and may be
 used, copied, transmitted, or stored only in accord with that
 written license.
  
 The following legend is applicable only to US Government
 contracts under FAR:
  
                    RESTRICTED RIGHTS LEGEND
  
 Use, reproduction and disclosure by the US Government is
 subject to restrictions as set forth in subparagraphs (a)
 and (c) of the Commercial Computer Software - Restricted
 Rights clause in FAR 52.227-19.
  
 Gaussian, Inc.
 340 Quinnipiac St., Bldg. 40, Wallingford CT 06492
  
  
 ---------------------------------------------------------------
 Warning -- This program may not be used in any manner that
 competes with the business of Gaussian, Inc. or will provide
 assistance to any competitor of Gaussian, Inc.  The licensee
 of this program is prohibited from giving any competitor of
 Gaussian, Inc. access to this program.  By using this program,
 the user acknowledges that Gaussian, Inc. is engaged in the
 business of creating and licensing software in the field of
 computational chemistry and represents and warrants to the
 licensee that it is not a competitor of Gaussian, Inc. and that
 it will not use this program in any manner prohibited above.
 ---------------------------------------------------------------
  

 Cite this work as:
 Gaussian 16, Revision A.03,
 M. J. Frisch, G. W. Trucks, H. B. Schlegel, G. E. Scuseria, 
 M. A. Robb, J. R. Cheeseman, G. Scalmani, V. Barone, 
 G. A. Petersson, H. Nakatsuji, X. Li, M. Caricato, A. V. Marenich, 
 J. Bloino, B. G. Janesko, R. Gomperts, B. Mennucci, H. P. Hratchian, 
 J. V. Ortiz, A. F. Izmaylov, J. L. Sonnenberg, D. Williams-Young, 
 F. Ding, F. Lipparini, F. Egidi, J. Goings, B. Peng, A. Petrone, 
 T. Henderson, D. Ranasinghe, V. G. Zakrzewski, J. Gao, N. Rega, 
 G. Zheng, W. Liang, M. Hada, M. Ehara, K. Toyota, R. Fukuda, 
 J. Hasegawa, M. Ishida, T. Nakajima, Y. Honda, O. Kitao, H. Nakai, 
 T. Vreven, K. Throssell, J. A. Montgomery, Jr., J. E. Peralta, 
 F. Ogliaro, M. J. Bearpark, J. J. Heyd, E. N. Brothers, K. N. Kudin, 
 V. N. Staroverov, T. A. Keith, R. Kobayashi, J. Normand, 
 K. Raghavachari, A. P. Rendell, J. C. Burant, S. S. Iyengar, 
 J. Tomasi, M. Cossi, J. M. Millam, M. Klene, C. Adamo, R. Cammi, 
 J. W. Ochterski, R. L. Martin, K. Morokuma, O. Farkas, 
 J. B. Foresman, and D. J. Fox, Gaussian, Inc., Wallingford CT, 2016.
 
 ******************************************
 Gaussian 16:  ES64L-G16RevA.03 25-Dec-2016
                30-Jul-2018 
 ******************************************
 %rwf=/scratch/cieritan/rwf/THIAMETHOXAM_5.rwf
 %chk=/scratch/cieritan/chk/THIAMETHOXAM_5.chk
 %mem=4000mb
 %nproc=8
 Will use up to    8 processors via shared memory.
 ----------------------------------------------------------------------
 # opt=maxcycles=150 freq b3lyp/6-31++g(d,p) empiricaldispersion=GD3 in
 t=ultrafine scf=xqc pop=(mk,dipole)
 ----------------------------------------------------------------------
 1/6=150,18=20,19=15,26=4,38=1/1,3;
 2/9=110,12=2,17=6,18=5,40=1/2;
 3/5=1,6=6,7=1111,11=2,25=1,30=1,71=1,74=-5,75=-5,124=31/1,2,3;
 4//1;
 5/5=2,8=3,13=1,38=5/2,8;
 6/7=2,8=2,9=2,10=2,15=24,20=1,28=1/1,2;
 7//1,2,3,16;
 1/6=150,18=20,19=15,26=4/3(2);
 2/9=110/2;
 99//99;
 2/9=110/2;
 3/5=1,6=6,7=1111,11=2,25=1,30=1,71=1,74=-5,75=-5,124=31/1,2,3;
 4/5=5,16=3,69=1/1;
 5/5=2,8=3,13=1,38=5/2,8;
 7//1,2,3,16;
 1/6=150,18=20,19=15,26=4/3(-5);
 2/9=110/2;
 6/7=2,8=2,9=2,10=2,15=24,19=2,20=1,28=1/1,2;
 99/9=1/99;
 -----------------------------
 Original File: THIAMETHOXAM_5
 -----------------------------
 Symbolic Z-matrix:
 Charge =  1 Multiplicity = 1
 Cl                   -4.35815   0.65757   0.90216 
 S                    -1.76566   0.29179  -0.59371 
 O                     3.53552  -1.61545  -0.08983 
 O                     1.90885   2.77975   0.13547 
 O                     0.30367   3.15645  -1.30503 
 N                     1.28884  -1.21635  -0.57905 
 N                     2.57788   0.37431   0.83729 
 N                     0.88961   1.07363  -0.88885 
 N                    -3.12295  -1.66101   0.46063 
 N                     1.03216   2.46033  -0.67553 
 C                     2.26531  -2.27403  -0.18612 
 C                     1.5327    0.09371  -0.28224 
 C                     0.12095  -1.57715  -1.46911 
 C                     3.6418   -0.73811   1.00731 
 C                    -1.1392   -1.32798  -0.74792 
 C                     1.83287   0.60787   2.13478 
 C                    -1.98937  -2.22244  -0.14419 
 C                    -3.16017  -0.34995   0.31617 
 H                     1.96586  -2.7676    0.76302 
 H                     2.42468  -3.01022  -1.01378 
 H                     0.22532  -2.64944  -1.76566 
 H                     0.18521  -0.9748   -2.41746 
 H                     4.67302  -0.3142    0.90759 
 H                     3.50737  -1.26066   1.98066 
 H                     1.15765  -0.2293    2.39133 
 H                     1.21649   1.53487   2.07457 
 H                     2.53177   0.76686   2.9804 
 H                    -1.88415  -3.3062   -0.09547 
 H                     3.06338   1.30949   0.57898 
 

 GradGradGradGradGradGradGradGradGradGradGradGradGradGradGradGradGradGrad
 Berny optimization.
 Initialization pass.
                           ----------------------------
                           !    Initial Parameters    !
                           ! (Angstroms and Degrees)  !
 --------------------------                            --------------------------
 ! Name  Definition              Value          Derivative Info.                !
 --------------------------------------------------------------------------------
 ! R1    R(1,18)                 1.6714         estimate D2E/DX2                !
 ! R2    R(2,15)                 1.7435         estimate D2E/DX2                !
 ! R3    R(2,18)                 1.7845         estimate D2E/DX2                !
 ! R4    R(3,11)                 1.434          estimate D2E/DX2                !
 ! R5    R(3,14)                 1.4088         estimate D2E/DX2                !
 ! R6    R(4,10)                 1.2363         estimate D2E/DX2                !
 ! R7    R(5,10)                 1.1881         estimate D2E/DX2                !
 ! R8    R(6,11)                 1.4922         estimate D2E/DX2                !
 ! R9    R(6,12)                 1.3652         estimate D2E/DX2                !
 ! R10   R(6,13)                 1.5121         estimate D2E/DX2                !
 ! R11   R(7,12)                 1.5571         estimate D2E/DX2                !
 ! R12   R(7,14)                 1.5487         estimate D2E/DX2                !
 ! R13   R(7,16)                 1.5143         estimate D2E/DX2                !
 ! R14   R(7,29)                 1.0849         estimate D2E/DX2                !
 ! R15   R(8,10)                 1.4102         estimate D2E/DX2                !
 ! R16   R(8,12)                 1.3198         estimate D2E/DX2                !
 ! R17   R(9,17)                 1.4021         estimate D2E/DX2                !
 ! R18   R(9,18)                 1.3195         estimate D2E/DX2                !
 ! R19   R(11,19)                1.1109         estimate D2E/DX2                !
 ! R20   R(11,20)                1.1191         estimate D2E/DX2                !
 ! R21   R(13,15)                1.4732         estimate D2E/DX2                !
 ! R22   R(13,21)                1.1174         estimate D2E/DX2                !
 ! R23   R(13,22)                1.1253         estimate D2E/DX2                !
 ! R24   R(14,23)                1.1194         estimate D2E/DX2                !
 ! R25   R(14,24)                1.1129         estimate D2E/DX2                !
 ! R26   R(15,17)                1.3738         estimate D2E/DX2                !
 ! R27   R(16,25)                1.1057         estimate D2E/DX2                !
 ! R28   R(16,26)                1.1148         estimate D2E/DX2                !
 ! R29   R(16,27)                1.1085         estimate D2E/DX2                !
 ! R30   R(17,28)                1.0899         estimate D2E/DX2                !
 ! A1    A(15,2,18)             89.5294         estimate D2E/DX2                !
 ! A2    A(11,3,14)            113.8983         estimate D2E/DX2                !
 ! A3    A(11,6,12)            120.4008         estimate D2E/DX2                !
 ! A4    A(11,6,13)            119.4269         estimate D2E/DX2                !
 ! A5    A(12,6,13)            119.6636         estimate D2E/DX2                !
 ! A6    A(12,7,14)            114.2443         estimate D2E/DX2                !
 ! A7    A(12,7,16)            108.2767         estimate D2E/DX2                !
 ! A8    A(12,7,29)            106.5315         estimate D2E/DX2                !
 ! A9    A(14,7,16)            110.7759         estimate D2E/DX2                !
 ! A10   A(14,7,29)            109.7489         estimate D2E/DX2                !
 ! A11   A(16,7,29)            106.9314         estimate D2E/DX2                !
 ! A12   A(10,8,12)            127.6852         estimate D2E/DX2                !
 ! A13   A(17,9,18)            111.9268         estimate D2E/DX2                !
 ! A14   A(4,10,5)             129.1254         estimate D2E/DX2                !
 ! A15   A(4,10,8)             115.1493         estimate D2E/DX2                !
 ! A16   A(5,10,8)             115.7223         estimate D2E/DX2                !
 ! A17   A(3,11,6)             105.7708         estimate D2E/DX2                !
 ! A18   A(3,11,19)            112.6705         estimate D2E/DX2                !
 ! A19   A(3,11,20)            103.0402         estimate D2E/DX2                !
 ! A20   A(6,11,19)            111.3156         estimate D2E/DX2                !
 ! A21   A(6,11,20)            111.3909         estimate D2E/DX2                !
 ! A22   A(19,11,20)           112.2094         estimate D2E/DX2                !
 ! A23   A(6,12,7)             116.6888         estimate D2E/DX2                !
 ! A24   A(6,12,8)             121.7043         estimate D2E/DX2                !
 ! A25   A(7,12,8)             121.5838         estimate D2E/DX2                !
 ! A26   A(6,13,15)            109.4006         estimate D2E/DX2                !
 ! A27   A(6,13,21)            108.243          estimate D2E/DX2                !
 ! A28   A(6,13,22)            108.9199         estimate D2E/DX2                !
 ! A29   A(15,13,21)           111.8466         estimate D2E/DX2                !
 ! A30   A(15,13,22)           111.7695         estimate D2E/DX2                !
 ! A31   A(21,13,22)           106.5395         estimate D2E/DX2                !
 ! A32   A(3,14,7)             108.0598         estimate D2E/DX2                !
 ! A33   A(3,14,23)            103.6478         estimate D2E/DX2                !
 ! A34   A(3,14,24)            112.3092         estimate D2E/DX2                !
 ! A35   A(7,14,23)            110.5529         estimate D2E/DX2                !
 ! A36   A(7,14,24)            110.5066         estimate D2E/DX2                !
 ! A37   A(23,14,24)           111.5309         estimate D2E/DX2                !
 ! A38   A(2,15,13)            120.5167         estimate D2E/DX2                !
 ! A39   A(2,15,17)            110.0992         estimate D2E/DX2                !
 ! A40   A(13,15,17)           129.3738         estimate D2E/DX2                !
 ! A41   A(7,16,25)            112.4867         estimate D2E/DX2                !
 ! A42   A(7,16,26)            110.7311         estimate D2E/DX2                !
 ! A43   A(7,16,27)            111.4415         estimate D2E/DX2                !
 ! A44   A(25,16,26)           107.7264         estimate D2E/DX2                !
 ! A45   A(25,16,27)           108.458          estimate D2E/DX2                !
 ! A46   A(26,16,27)           105.6955         estimate D2E/DX2                !
 ! A47   A(9,17,15)            115.4148         estimate D2E/DX2                !
 ! A48   A(9,17,28)            117.188          estimate D2E/DX2                !
 ! A49   A(15,17,28)           127.3934         estimate D2E/DX2                !
 ! A50   A(1,18,2)             121.4732         estimate D2E/DX2                !
 ! A51   A(1,18,9)             125.5039         estimate D2E/DX2                !
 ! A52   A(2,18,9)             113.0229         estimate D2E/DX2                !
 ! D1    D(18,2,15,13)         179.6306         estimate D2E/DX2                !
 ! D2    D(18,2,15,17)           0.6879         estimate D2E/DX2                !
 ! D3    D(15,2,18,1)          179.5779         estimate D2E/DX2                !
 ! D4    D(15,2,18,9)           -0.3407         estimate D2E/DX2                !
 ! D5    D(14,3,11,6)           70.2659         estimate D2E/DX2                !
 ! D6    D(14,3,11,19)         -51.5586         estimate D2E/DX2                !
 ! D7    D(14,3,11,20)        -172.7053         estimate D2E/DX2                !
 ! D8    D(11,3,14,7)          -61.7379         estimate D2E/DX2                !
 ! D9    D(11,3,14,23)        -179.0713         estimate D2E/DX2                !
 ! D10   D(11,3,14,24)          60.4078         estimate D2E/DX2                !
 ! D11   D(8,5,10,4)           179.339          estimate D2E/DX2                !
 ! D12   D(12,6,11,3)          -25.198          estimate D2E/DX2                !
 ! D13   D(12,6,11,19)          97.4936         estimate D2E/DX2                !
 ! D14   D(12,6,11,20)        -136.4478         estimate D2E/DX2                !
 ! D15   D(13,6,11,3)          146.594          estimate D2E/DX2                !
 ! D16   D(13,6,11,19)         -90.7144         estimate D2E/DX2                !
 ! D17   D(13,6,11,20)          35.3443         estimate D2E/DX2                !
 ! D18   D(11,6,12,7)          -19.1121         estimate D2E/DX2                !
 ! D19   D(11,6,12,8)          162.6099         estimate D2E/DX2                !
 ! D20   D(13,6,12,7)          169.1152         estimate D2E/DX2                !
 ! D21   D(13,6,12,8)           -9.1627         estimate D2E/DX2                !
 ! D22   D(11,6,13,15)         118.1479         estimate D2E/DX2                !
 ! D23   D(11,6,13,21)          -3.9579         estimate D2E/DX2                !
 ! D24   D(11,6,13,22)        -119.4154         estimate D2E/DX2                !
 ! D25   D(12,6,13,15)         -69.9989         estimate D2E/DX2                !
 ! D26   D(12,6,13,21)         167.8954         estimate D2E/DX2                !
 ! D27   D(12,6,13,22)          52.4378         estimate D2E/DX2                !
 ! D28   D(14,7,12,6)           26.8006         estimate D2E/DX2                !
 ! D29   D(14,7,12,8)         -154.9192         estimate D2E/DX2                !
 ! D30   D(16,7,12,6)          -97.1465         estimate D2E/DX2                !
 ! D31   D(16,7,12,8)           81.1337         estimate D2E/DX2                !
 ! D32   D(29,7,12,6)          148.1483         estimate D2E/DX2                !
 ! D33   D(29,7,12,8)          -33.5715         estimate D2E/DX2                !
 ! D34   D(12,7,14,3)           11.2925         estimate D2E/DX2                !
 ! D35   D(12,7,14,23)         124.0797         estimate D2E/DX2                !
 ! D36   D(12,7,14,24)        -111.9542         estimate D2E/DX2                !
 ! D37   D(16,7,14,3)          133.8888         estimate D2E/DX2                !
 ! D38   D(16,7,14,23)        -113.324          estimate D2E/DX2                !
 ! D39   D(16,7,14,24)          10.6421         estimate D2E/DX2                !
 ! D40   D(29,7,14,3)         -108.2618         estimate D2E/DX2                !
 ! D41   D(29,7,14,23)           4.5253         estimate D2E/DX2                !
 ! D42   D(29,7,14,24)         128.4914         estimate D2E/DX2                !
 ! D43   D(12,7,16,25)          55.2991         estimate D2E/DX2                !
 ! D44   D(12,7,16,26)         -65.2989         estimate D2E/DX2                !
 ! D45   D(12,7,16,27)         177.3525         estimate D2E/DX2                !
 ! D46   D(14,7,16,25)         -70.7031         estimate D2E/DX2                !
 ! D47   D(14,7,16,26)         168.6989         estimate D2E/DX2                !
 ! D48   D(14,7,16,27)          51.3502         estimate D2E/DX2                !
 ! D49   D(29,7,16,25)         169.7415         estimate D2E/DX2                !
 ! D50   D(29,7,16,26)          49.1435         estimate D2E/DX2                !
 ! D51   D(29,7,16,27)         -68.2052         estimate D2E/DX2                !
 ! D52   D(12,8,10,4)            3.4922         estimate D2E/DX2                !
 ! D53   D(12,8,10,5)         -177.0743         estimate D2E/DX2                !
 ! D54   D(10,8,12,6)          179.4505         estimate D2E/DX2                !
 ! D55   D(10,8,12,7)            1.2566         estimate D2E/DX2                !
 ! D56   D(18,9,17,15)           0.6738         estimate D2E/DX2                !
 ! D57   D(18,9,17,28)        -178.6739         estimate D2E/DX2                !
 ! D58   D(17,9,18,1)          179.9805         estimate D2E/DX2                !
 ! D59   D(17,9,18,2)           -0.1047         estimate D2E/DX2                !
 ! D60   D(6,13,15,2)           78.2918         estimate D2E/DX2                !
 ! D61   D(6,13,15,17)        -102.9927         estimate D2E/DX2                !
 ! D62   D(21,13,15,2)        -161.7901         estimate D2E/DX2                !
 ! D63   D(21,13,15,17)         16.9254         estimate D2E/DX2                !
 ! D64   D(22,13,15,2)         -42.4256         estimate D2E/DX2                !
 ! D65   D(22,13,15,17)        136.2899         estimate D2E/DX2                !
 ! D66   D(2,15,17,9)           -0.9175         estimate D2E/DX2                !
 ! D67   D(2,15,17,28)         178.3522         estimate D2E/DX2                !
 ! D68   D(13,15,17,9)        -179.7392         estimate D2E/DX2                !
 ! D69   D(13,15,17,28)         -0.4695         estimate D2E/DX2                !
 --------------------------------------------------------------------------------
 Trust Radius=3.00D-01 FncErr=1.00D-07 GrdErr=1.00D-06 EigMax=2.50D+02 EigMin=1.00D-04
 Number of steps in this run=    150 maximum allowed number of steps=    174.
 GradGradGradGradGradGradGradGradGradGradGradGradGradGradGradGradGradGrad

                          Input orientation:                          
 ---------------------------------------------------------------------
 Center     Atomic      Atomic             Coordinates (Angstroms)
 Number     Number       Type             X           Y           Z
 ---------------------------------------------------------------------
      1         17           0       -4.358150    0.657566    0.902160
      2         16           0       -1.765658    0.291788   -0.593713
      3          8           0        3.535523   -1.615446   -0.089826
      4          8           0        1.908845    2.779745    0.135473
      5          8           0        0.303668    3.156454   -1.305033
      6          7           0        1.288844   -1.216351   -0.579045
      7          7           0        2.577884    0.374314    0.837288
      8          7           0        0.889613    1.073633   -0.888851
      9          7           0       -3.122952   -1.661006    0.460628
     10          7           0        1.032162    2.460329   -0.675527
     11          6           0        2.265312   -2.274033   -0.186115
     12          6           0        1.532703    0.093708   -0.282243
     13          6           0        0.120951   -1.577148   -1.469112
     14          6           0        3.641800   -0.738113    1.007312
     15          6           0       -1.139203   -1.327975   -0.747924
     16          6           0        1.832867    0.607870    2.134784
     17          6           0       -1.989374   -2.222441   -0.144187
     18          6           0       -3.160165   -0.349949    0.316171
     19          1           0        1.965863   -2.767595    0.763020
     20          1           0        2.424682   -3.010223   -1.013780
     21          1           0        0.225317   -2.649440   -1.765656
     22          1           0        0.185207   -0.974796   -2.417456
     23          1           0        4.673015   -0.314203    0.907594
     24          1           0        3.507367   -1.260661    1.980663
     25          1           0        1.157651   -0.229301    2.391334
     26          1           0        1.216491    1.534873    2.074574
     27          1           0        2.531766    0.766856    2.980396
     28          1           0       -1.884148   -3.306195   -0.095474
     29          1           0        3.063380    1.309491    0.578981
 ---------------------------------------------------------------------
                    Distance matrix (angstroms):
                    1          2          3          4          5
     1  Cl   0.000000
     2  S    3.015368   0.000000
     3  O    8.274098   5.656321   0.000000
     4  O    6.660832   4.497067   4.691966   0.000000
     5  O    5.731378   3.604774   5.890046   2.189420   0.000000
     6  N    6.131401   3.406564   2.333705   4.106546   4.540821
     7  N    6.942118   4.573940   2.394944   2.593503   4.183527
     8  N    5.560562   2.783676   3.856219   2.235820   2.203334
     9  N    2.663915   2.601401   6.681345   6.719001   6.169863
    10  N    5.898687   3.540771   4.818901   1.236253   1.188096
    11  C    7.324538   4.795654   1.434031   5.076530   5.881345
    12  C    6.035138   3.318951   2.639985   2.744224   3.455002
    13  C    5.538883   2.796165   3.682825   4.975317   4.739968
    14  C    8.121464   5.732764   1.408801   4.017283   5.626519
    15  C    4.126351   1.743519   4.729566   5.190795   4.743664
    16  C    6.312727   4.527028   3.576459   2.952974   4.545995
    17  C    3.873033   2.563878   5.558407   6.347928   5.961385
    18  C    1.671418   1.784479   6.826313   5.960075   5.188574
    19  H    7.193346   5.012464   2.125706   5.583014   6.491078
    20  H    7.945459   5.351512   2.008248   5.925420   6.527743
    21  H    6.249936   3.740087   3.851625   5.993714   5.824665
    22  H    5.858886   2.955698   4.129517   4.856434   4.280040
    23  H    9.083298   6.639101   1.995487   4.220109   6.002697
    24  H    8.167565   6.069786   2.100855   4.720686   6.369489
    25  H    5.781715   4.210436   3.705648   3.835044   5.084855
    26  H    5.763753   4.190254   4.470687   2.406070   3.858045
    27  H    7.197357   5.609617   4.013621   3.540246   5.388831
    28  H    4.777799   3.634249   5.677279   7.174873   6.929315
    29  H    7.457115   5.072528   3.037347   1.921275   3.817956
                    6          7          8          9         10
     6  N    0.000000
     7  N    2.489546   0.000000
     8  N    2.345078   2.513735   0.000000
     9  N    4.554402   6.064976   5.039843   0.000000
    10  N    3.686892   3.004883   1.410232   5.961646   0.000000
    11  C    1.492171   2.856361   3.686903   5.461453   4.916743
    12  C    1.365215   1.557078   1.319769   5.030507   2.450736
    13  C    1.512074   3.894124   2.820316   3.775425   4.214416
    14  C    2.877784   1.548651   3.801630   6.849267   4.457823
    15  C    2.436471   4.384908   3.147011   2.346650   4.367072
    16  C    3.314907   1.514297   3.201411   5.701819   3.459853
    17  C    3.456593   5.344743   4.439279   1.402145   5.598244
    18  C    4.620146   5.807007   4.458628   1.319516   5.143611
    19  H    2.160058   3.201824   4.317641   5.216514   5.502036
    20  H    2.167279   3.860701   4.364622   5.896652   5.655127
    21  H    2.143100   4.631736   3.882184   4.140561   5.286693
    22  H    2.157804   4.258915   2.651204   4.438262   3.943569
    23  H    3.804810   2.206484   4.412192   7.924062   4.843564
    24  H    3.387612   2.200997   4.531631   6.814097   5.198822
    25  H    3.132831   2.190085   3.539646   4.909274   4.081114
    26  H    3.823109   2.175124   3.016866   5.625765   2.907491
    27  H    4.259998   2.179249   4.214481   6.649780   4.299120
    28  H    3.830035   5.858833   5.244625   2.133198   6.487999
    29  H    3.296950   1.084889   2.633519   6.863568   2.650295
                   11         12         13         14         15
    11  C    0.000000
    12  C    2.480354   0.000000
    13  C    2.594227   2.488667   0.000000
    14  C    2.382863   2.608288   4.385548   0.000000
    15  C    3.577901   3.062209   1.473156   5.127064   0.000000
    16  C    3.725446   2.489273   4.548959   2.520933   4.570635
    17  C    4.255205   4.217657   2.573966   5.936270   1.373812
    18  C    5.778425   4.751625   3.931790   6.847998   2.484577
    19  H    1.110914   3.076891   3.131019   2.643339   3.741242
    20  H    1.119109   3.311368   2.751038   3.275465   3.949926
    21  H    2.607194   3.381513   1.117426   4.797382   2.154986
    22  H    3.315680   2.741638   1.125306   4.871662   2.160124
    23  H    3.291530   3.382848   5.288199   1.119396   6.127834
    24  H    2.695283   3.294595   4.844474   1.112897   5.388908
    25  H    3.471467   2.719010   4.218351   2.888841   4.041975
    26  H    4.551758   2.780563   4.841755   3.491080   4.659580
    27  H    4.398272   3.477940   5.577141   2.718486   5.636018
    28  H    4.276867   4.823805   2.982768   6.192518   2.212236
    29  H    3.750190   2.136073   4.602745   2.170419   5.136011
                   16         17         18         19         20
    16  C    0.000000
    17  C    5.273888   0.000000
    18  C    5.399550   2.255861   0.000000
    19  H    3.645982   4.094401   5.685143   0.000000
    20  H    4.832628   4.567350   6.327428   1.851054   0.000000
    21  H    5.329889   2.777831   4.591639   3.072078   2.352167
    22  H    5.093378   3.384254   4.365165   4.062055   3.335943
    23  H    3.228414   7.009639   7.855556   3.656324   4.001900
    24  H    2.513784   5.971111   6.932237   2.475831   3.633162
    25  H    1.105708   4.506134   4.792118   3.122107   4.575336
    26  H    1.114845   5.414599   5.079336   4.559930   5.626327
    27  H    1.108511   6.256167   6.383058   4.210623   5.498294
    28  H    5.840390   1.089940   3.246084   3.981166   4.415530
    29  H    2.104034   6.207080   6.446342   4.226233   4.648091
                   21         22         23         24         25
    21  H    0.000000
    22  H    1.797466   0.000000
    23  H    5.690485   5.624301   0.000000
    24  H    5.170635   5.519232   1.845534   0.000000
    25  H    4.899682   4.962446   3.816605   2.598753   0.000000
    26  H    5.765264   5.247887   4.090047   3.615514   1.793351
    27  H    6.286159   6.138118   3.170196   2.462131   1.796529
    28  H    2.769599   3.887062   7.276988   6.128865   4.990394
    29  H    5.406021   4.741359   2.309825   2.961000   3.047016
                   26         27         28         29
    26  H    0.000000
    27  H    1.772093   0.000000
    28  H    6.144836   6.749149   0.000000
    29  H    2.387173   2.518702   6.799815   0.000000
 Stoichiometry    C8H11ClN5O3S(1+)
 Framework group  C1[X(C8H11ClN5O3S)]
 Deg. of freedom    81
 Full point group                 C1      NOp   1
 Largest Abelian subgroup         C1      NOp   1
 Largest concise Abelian subgroup C1      NOp   1
                         Standard orientation:                         
 ---------------------------------------------------------------------
 Center     Atomic      Atomic             Coordinates (Angstroms)
 Number     Number       Type             X           Y           Z
 ---------------------------------------------------------------------
      1         17           0       -4.358150    0.657566    0.902160
      2         16           0       -1.765658    0.291788   -0.593713
      3          8           0        3.535523   -1.615446   -0.089826
      4          8           0        1.908845    2.779745    0.135473
      5          8           0        0.303668    3.156454   -1.305033
      6          7           0        1.288844   -1.216351   -0.579045
      7          7           0        2.577884    0.374314    0.837288
      8          7           0        0.889613    1.073633   -0.888851
      9          7           0       -3.122952   -1.661006    0.460628
     10          7           0        1.032162    2.460329   -0.675527
     11          6           0        2.265312   -2.274033   -0.186115
     12          6           0        1.532703    0.093708   -0.282243
     13          6           0        0.120951   -1.577148   -1.469112
     14          6           0        3.641800   -0.738113    1.007312
     15          6           0       -1.139203   -1.327975   -0.747924
     16          6           0        1.832867    0.607870    2.134784
     17          6           0       -1.989374   -2.222441   -0.144187
     18          6           0       -3.160165   -0.349949    0.316171
     19          1           0        1.965863   -2.767595    0.763020
     20          1           0        2.424682   -3.010223   -1.013780
     21          1           0        0.225317   -2.649440   -1.765656
     22          1           0        0.185207   -0.974796   -2.417456
     23          1           0        4.673015   -0.314203    0.907594
     24          1           0        3.507367   -1.260661    1.980663
     25          1           0        1.157651   -0.229301    2.391334
     26          1           0        1.216491    1.534873    2.074574
     27          1           0        2.531766    0.766856    2.980396
     28          1           0       -1.884148   -3.306195   -0.095474
     29          1           0        3.063380    1.309491    0.578981
 ---------------------------------------------------------------------
 Rotational constants (GHZ):           0.5207984           0.2431186           0.1965063
 Standard basis: 6-31++G(d,p) (6D, 7F)
 There are   416 symmetry adapted cartesian basis functions of A   symmetry.
 There are   416 symmetry adapted basis functions of A   symmetry.
   416 basis functions,   712 primitive gaussians,   416 cartesian basis functions
    75 alpha electrons       75 beta electrons
       nuclear repulsion energy      1682.8666016561 Hartrees.
 NAtoms=   29 NActive=   29 NUniq=   29 SFac= 1.00D+00 NAtFMM=   60 NAOKFM=F Big=F
 Integral buffers will be    131072 words long.
 Raffenetti 2 integral format.
 Two-electron integral symmetry is turned on.
 Nuclear repulsion after empirical dispersion term =     1682.8328764867 Hartrees.
 One-electron integrals computed using PRISM.
 NBasis=   416 RedAO= T EigKep=  5.49D-06  NBF=   416
 NBsUse=   416 1.00D-06 EigRej= -1.00D+00 NBFU=   416
 ExpMin= 3.60D-02 ExpMax= 2.52D+04 ExpMxC= 3.78D+03 IAcc=3 IRadAn=         5 AccDes= 0.00D+00
 Harris functional with IExCor=  402 and IRadAn=       5 diagonalized for initial guess.
 HarFok:  IExCor=  402 AccDes= 0.00D+00 IRadAn=         5 IDoV= 1 UseB2=F ITyADJ=14
 ICtDFT=  3500011 ScaDFX=  1.000000  1.000000  1.000000  1.000000
 FoFCou: FMM=F IPFlag=           0 FMFlag=      100000 FMFlg1=           0
         NFxFlg=           0 DoJE=T BraDBF=F KetDBF=T FulRan=T
         wScrn=  0.000000 ICntrl=       500 IOpCl=  0 I1Cent=   200000004 NGrid=           0
         NMat0=    1 NMatS0=      1 NMatT0=    0 NMatD0=    1 NMtDS0=    0 NMtDT0=    0
 Petite list used in FoFCou.
 Requested convergence on RMS density matrix=1.00D-08 within  32 cycles.
 Requested convergence on MAX density matrix=1.00D-06.
 Requested convergence on             energy=1.00D-06.
 No special actions if energy rises.
 EnCoef did     3 forward-backward iterations
 EnCoef did     1 forward-backward iterations
 SCF Done:  E(RB3LYP) =  -1668.90163541     A.U. after   18 cycles
            NFock= 18  Conv=0.97D-08     -V/T= 2.0065
 QCSCF skips out because SCF is already converged.

 **********************************************************************

            Population analysis using the SCF density.

 **********************************************************************

 Orbital symmetries:
       Occupied  (A) (A) (A) (A) (A) (A) (A) (A) (A) (A) (A) (A)
                 (A) (A) (A) (A) (A) (A) (A) (A) (A) (A) (A) (A)
                 (A) (A) (A) (A) (A) (A) (A) (A) (A) (A) (A) (A)
                 (A) (A) (A) (A) (A) (A) (A) (A) (A) (A) (A) (A)
                 (A) (A) (A) (A) (A) (A) (A) (A) (A) (A) (A) (A)
                 (A) (A) (A) (A) (A) (A) (A) (A) (A) (A) (A) (A)
                 (A) (A) (A)
       Virtual   (A) (A) (A) (A) (A) (A) (A) (A) (A) (A) (A) (A)
                 (A) (A) (A) (A) (A) (A) (A) (A) (A) (A) (A) (A)
                 (A) (A) (A) (A) (A) (A) (A) (A) (A) (A) (A) (A)
                 (A) (A) (A) (A) (A) (A) (A) (A) (A) (A) (A) (A)
                 (A) (A) (A) (A) (A) (A) (A) (A) (A) (A) (A) (A)
                 (A) (A) (A) (A) (A) (A) (A) (A) (A) (A) (A) (A)
                 (A) (A) (A) (A) (A) (A) (A) (A) (A) (A) (A) (A)
                 (A) (A) (A) (A) (A) (A) (A) (A) (A) (A) (A) (A)
                 (A) (A) (A) (A) (A) (A) (A) (A) (A) (A) (A) (A)
                 (A) (A) (A) (A) (A) (A) (A) (A) (A) (A) (A) (A)
                 (A) (A) (A) (A) (A) (A) (A) (A) (A) (A) (A) (A)
                 (A) (A) (A) (A) (A) (A) (A) (A) (A) (A) (A) (A)
                 (A) (A) (A) (A) (A) (A) (A) (A) (A) (A) (A) (A)
                 (A) (A) (A) (A) (A) (A) (A) (A) (A) (A) (A) (A)
                 (A) (A) (A) (A) (A) (A) (A) (A) (A) (A) (A) (A)
                 (A) (A) (A) (A) (A) (A) (A) (A) (A) (A) (A) (A)
                 (A) (A) (A) (A) (A) (A) (A) (A) (A) (A) (A) (A)
                 (A) (A) (A) (A) (A) (A) (A) (A) (A) (A) (A) (A)
                 (A) (A) (A) (A) (A) (A) (A) (A) (A) (A) (A) (A)
                 (A) (A) (A) (A) (A) (A) (A) (A) (A) (A) (A) (A)
                 (A) (A) (A) (A) (A) (A) (A) (A) (A) (A) (A) (A)
                 (A) (A) (A) (A) (A) (A) (A) (A) (A) (A) (A) (A)
                 (A) (A) (A) (A) (A) (A) (A) (A) (A) (A) (A) (A)
                 (A) (A) (A) (A) (A) (A) (A) (A) (A) (A) (A) (A)
                 (A) (A) (A) (A) (A) (A) (A) (A) (A) (A) (A) (A)
                 (A) (A) (A) (A) (A) (A) (A) (A) (A) (A) (A) (A)
                 (A) (A) (A) (A) (A) (A) (A) (A) (A) (A) (A) (A)
                 (A) (A) (A) (A) (A) (A) (A) (A) (A) (A) (A) (A)
                 (A) (A) (A) (A) (A)
 The electronic state is 1-A.
 Alpha  occ. eigenvalues -- -101.67998 -89.04652 -19.37587 -19.35778 -19.34578
 Alpha  occ. eigenvalues --  -14.76649 -14.65888 -14.58684 -14.54516 -14.46528
 Alpha  occ. eigenvalues --  -10.53171 -10.49255 -10.47863 -10.42562 -10.42234
 Alpha  occ. eigenvalues --  -10.41248 -10.36246 -10.35858  -9.59551  -8.10518
 Alpha  occ. eigenvalues --   -7.36003  -7.34970  -7.34898  -6.06947  -6.06576
 Alpha  occ. eigenvalues --   -6.06204  -1.41703  -1.27481  -1.24214  -1.19189
 Alpha  occ. eigenvalues --   -1.15054  -1.09468  -1.08997  -0.99408  -0.95831
 Alpha  occ. eigenvalues --   -0.94057  -0.91409  -0.89424  -0.87858  -0.83872
 Alpha  occ. eigenvalues --   -0.83065  -0.78143  -0.75377  -0.73065  -0.71854
 Alpha  occ. eigenvalues --   -0.71531  -0.70673  -0.69373  -0.68670  -0.67913
 Alpha  occ. eigenvalues --   -0.67315  -0.66309  -0.64542  -0.63182  -0.60631
 Alpha  occ. eigenvalues --   -0.60165  -0.59313  -0.58225  -0.56681  -0.55163
 Alpha  occ. eigenvalues --   -0.54500  -0.54006  -0.53738  -0.52388  -0.49717
 Alpha  occ. eigenvalues --   -0.48825  -0.47862  -0.47399  -0.46122  -0.44408
 Alpha  occ. eigenvalues --   -0.44123  -0.43112  -0.40382  -0.39397  -0.36303
 Alpha virt. eigenvalues --   -0.24930  -0.17155  -0.16514  -0.15973  -0.15021
 Alpha virt. eigenvalues --   -0.13828  -0.12953  -0.12113  -0.11402  -0.10940
 Alpha virt. eigenvalues --   -0.10662  -0.10100  -0.09500  -0.09146  -0.08517
 Alpha virt. eigenvalues --   -0.08209  -0.07823  -0.06944  -0.06561  -0.06145
 Alpha virt. eigenvalues --   -0.05869  -0.05010  -0.04615  -0.04096  -0.03452
 Alpha virt. eigenvalues --   -0.03145  -0.02694  -0.02611  -0.01832  -0.01513
 Alpha virt. eigenvalues --   -0.01179  -0.00875  -0.00624  -0.00318   0.00031
 Alpha virt. eigenvalues --    0.00766   0.00913   0.00922   0.01263   0.01451
 Alpha virt. eigenvalues --    0.01828   0.02096   0.02320   0.02734   0.02883
 Alpha virt. eigenvalues --    0.03403   0.03582   0.03965   0.04584   0.04650
 Alpha virt. eigenvalues --    0.05055   0.05087   0.05509   0.05734   0.05904
 Alpha virt. eigenvalues --    0.06418   0.06618   0.06707   0.07486   0.07654
 Alpha virt. eigenvalues --    0.08085   0.08617   0.09154   0.09372   0.09698
 Alpha virt. eigenvalues --    0.10291   0.10535   0.10910   0.11277   0.11839
 Alpha virt. eigenvalues --    0.12546   0.12660   0.13002   0.13714   0.14170
 Alpha virt. eigenvalues --    0.14404   0.15179   0.15577   0.16157   0.16186
 Alpha virt. eigenvalues --    0.16700   0.17341   0.18044   0.18151   0.18615
 Alpha virt. eigenvalues --    0.18686   0.19155   0.19937   0.20199   0.20614
 Alpha virt. eigenvalues --    0.20790   0.21642   0.21873   0.22072   0.22603
 Alpha virt. eigenvalues --    0.22638   0.23308   0.23452   0.23763   0.24201
 Alpha virt. eigenvalues --    0.24743   0.24983   0.25720   0.26415   0.26451
 Alpha virt. eigenvalues --    0.28065   0.28328   0.29216   0.29907   0.30055
 Alpha virt. eigenvalues --    0.31624   0.32225   0.33554   0.35159   0.36000
 Alpha virt. eigenvalues --    0.36900   0.39535   0.42131   0.42652   0.45238
 Alpha virt. eigenvalues --    0.48969   0.50792   0.52399   0.52856   0.53132
 Alpha virt. eigenvalues --    0.53516   0.53842   0.54983   0.55646   0.57163
 Alpha virt. eigenvalues --    0.58234   0.58777   0.59338   0.60954   0.61874
 Alpha virt. eigenvalues --    0.62895   0.63576   0.64179   0.64799   0.66554
 Alpha virt. eigenvalues --    0.67471   0.68421   0.69180   0.71131   0.72499
 Alpha virt. eigenvalues --    0.73315   0.74443   0.75164   0.75711   0.76215
 Alpha virt. eigenvalues --    0.77263   0.78097   0.79322   0.80029   0.81136
 Alpha virt. eigenvalues --    0.81679   0.82318   0.82848   0.84223   0.84692
 Alpha virt. eigenvalues --    0.84992   0.85908   0.86315   0.86887   0.88562
 Alpha virt. eigenvalues --    0.89726   0.90606   0.91877   0.93452   0.93691
 Alpha virt. eigenvalues --    0.95394   0.95509   0.96205   0.96569   0.97333
 Alpha virt. eigenvalues --    0.98946   1.00197   1.00433   1.02015   1.02455
 Alpha virt. eigenvalues --    1.03349   1.05688   1.06065   1.08211   1.08618
 Alpha virt. eigenvalues --    1.10468   1.11123   1.12373   1.13028   1.14013
 Alpha virt. eigenvalues --    1.14911   1.15687   1.17755   1.18985   1.19450
 Alpha virt. eigenvalues --    1.20444   1.22064   1.22917   1.24147   1.26385
 Alpha virt. eigenvalues --    1.27266   1.28242   1.30377   1.31555   1.31928
 Alpha virt. eigenvalues --    1.33488   1.34817   1.37338   1.38350   1.40480
 Alpha virt. eigenvalues --    1.42845   1.45024   1.47129   1.47800   1.49495
 Alpha virt. eigenvalues --    1.51294   1.52800   1.52922   1.54537   1.56416
 Alpha virt. eigenvalues --    1.58902   1.59172   1.60984   1.63136   1.64195
 Alpha virt. eigenvalues --    1.65054   1.66190   1.66686   1.67512   1.68374
 Alpha virt. eigenvalues --    1.69642   1.70911   1.71949   1.72407   1.74406
 Alpha virt. eigenvalues --    1.74585   1.76760   1.78148   1.79909   1.81031
 Alpha virt. eigenvalues --    1.81363   1.84250   1.85181   1.85486   1.86891
 Alpha virt. eigenvalues --    1.88338   1.89072   1.90887   1.92298   1.93400
 Alpha virt. eigenvalues --    1.94043   1.94662   1.96363   1.97427   1.99638
 Alpha virt. eigenvalues --    2.01400   2.02627   2.05518   2.08122   2.09827
 Alpha virt. eigenvalues --    2.10207   2.12828   2.13144   2.13585   2.15773
 Alpha virt. eigenvalues --    2.17342   2.19112   2.22441   2.24324   2.25314
 Alpha virt. eigenvalues --    2.26557   2.28700   2.28913   2.30735   2.31652
 Alpha virt. eigenvalues --    2.34169   2.37141   2.38249   2.39577   2.41568
 Alpha virt. eigenvalues --    2.42612   2.43105   2.45794   2.46867   2.47209
 Alpha virt. eigenvalues --    2.47768   2.49924   2.51119   2.52637   2.55645
 Alpha virt. eigenvalues --    2.58450   2.59818   2.60275   2.63331   2.64056
 Alpha virt. eigenvalues --    2.66120   2.67262   2.68030   2.70297   2.70701
 Alpha virt. eigenvalues --    2.72403   2.75944   2.78525   2.78951   2.82580
 Alpha virt. eigenvalues --    2.85060   2.88197   2.91368   2.95216   2.97566
 Alpha virt. eigenvalues --    3.02754   3.04649   3.07255   3.09208   3.12189
 Alpha virt. eigenvalues --    3.14073   3.19275   3.25717   3.27358   3.28189
 Alpha virt. eigenvalues --    3.32986   3.35282   3.39613   3.84090   3.93619
 Alpha virt. eigenvalues --    4.09216   4.10674   4.11544   4.16220   4.19444
 Alpha virt. eigenvalues --    4.24330   4.25822   4.31941   4.35949   4.39914
 Alpha virt. eigenvalues --    4.44231   4.45904   4.51281   4.53130   4.53914
 Alpha virt. eigenvalues --    4.63997
          Condensed to atoms (all electrons):
               1          2          3          4          5          6
     1  Cl  16.743257   0.118028   0.000004   0.000566  -0.001091  -0.000168
     2  S    0.118028  18.036467   0.000428   0.029697  -0.014306   0.089385
     3  O    0.000004   0.000428   8.174610   0.000764  -0.000030  -0.071225
     4  O    0.000566   0.029697   0.000764   8.052634  -0.060621   0.003643
     5  O   -0.001091  -0.014306  -0.000030  -0.060621   7.616850   0.007607
     6  N   -0.000168   0.089385  -0.071225   0.003643   0.007607   7.383167
     7  N   -0.000003  -0.037459  -0.076297  -0.005797  -0.028601  -0.189931
     8  N   -0.001637   0.129865  -0.010857  -0.077981  -0.125670  -0.073427
     9  N   -0.021049   0.201190  -0.000041   0.000233  -0.000406  -0.012279
    10  N    0.003746  -0.041711  -0.000866   0.193645   0.481852  -0.157811
    11  C   -0.000237  -0.006013   0.230316   0.011572   0.002743   0.075783
    12  C   -0.009591  -0.578013  -0.029279  -0.141358   0.042579  -0.106643
    13  C   -0.040662  -0.209210   0.035989   0.040703   0.003988   0.551876
    14  C   -0.000002  -0.013443   0.206588  -0.021928  -0.003107  -0.043869
    15  C   -0.034252  -0.058428  -0.026933  -0.031291   0.011536  -0.458100
    16  C   -0.000874   0.027408   0.022422  -0.014168   0.008261   0.100501
    17  C   -0.024209  -0.959085  -0.002963  -0.000694  -0.001364  -0.042390
    18  C   -0.020332  -1.190778   0.000651  -0.004937   0.013351  -0.022537
    19  H    0.000328   0.012786  -0.001729   0.000904  -0.000317  -0.039498
    20  H   -0.000137  -0.011515  -0.079823  -0.001191   0.000243  -0.064503
    21  H    0.001428   0.032434   0.009034   0.003096  -0.001673  -0.053335
    22  H   -0.000655   0.013558  -0.003055  -0.003204   0.002187  -0.024934
    23  H   -0.000003  -0.000286  -0.076994  -0.003823   0.000649   0.002133
    24  H   -0.000066  -0.002401  -0.029806  -0.001785   0.000031   0.011598
    25  H   -0.000116   0.025934  -0.010699  -0.000976   0.002389   0.038834
    26  H    0.001270  -0.010014   0.007044   0.025760  -0.009384  -0.024481
    27  H    0.000185   0.000480   0.004146  -0.002682  -0.000120   0.004465
    28  H   -0.001582  -0.001488   0.000009  -0.000060   0.000010   0.000541
    29  H   -0.000127   0.003115  -0.003997   0.082566  -0.002367   0.008045
               7          8          9         10         11         12
     1  Cl  -0.000003  -0.001637  -0.021049   0.003746  -0.000237  -0.009591
     2  S   -0.037459   0.129865   0.201190  -0.041711  -0.006013  -0.578013
     3  O   -0.076297  -0.010857  -0.000041  -0.000866   0.230316  -0.029279
     4  O   -0.005797  -0.077981   0.000233   0.193645   0.011572  -0.141358
     5  O   -0.028601  -0.125670  -0.000406   0.481852   0.002743   0.042579
     6  N   -0.189931  -0.073427  -0.012279  -0.157811   0.075783  -0.106643
     7  N    8.016697  -0.355381  -0.000449   0.343525  -0.043756  -0.267375
     8  N   -0.355381   8.434976   0.005156  -1.260234   0.024702   0.080276
     9  N   -0.000449   0.005156   6.924882   0.001006  -0.005083  -0.014390
    10  N    0.343525  -1.260234   0.001006   7.970022  -0.079499   0.118906
    11  C   -0.043756   0.024702  -0.005083  -0.079499   5.305926  -0.243120
    12  C   -0.267375   0.080276  -0.014390   0.118906  -0.243120   8.352786
    13  C   -0.260748   0.250531  -0.050637  -0.320228   0.229381  -0.743571
    14  C    0.051628  -0.090441   0.000269   0.130301  -0.219374  -0.157023
    15  C    0.179365  -0.153662   0.386958   0.271445  -0.260565   0.255645
    16  C   -0.028136   0.149434  -0.002324  -0.147603   0.009654  -0.573537
    17  C    0.022547  -0.078913  -0.193031  -0.025160   0.022388   0.393519
    18  C    0.009415  -0.035878  -0.079487  -0.003505   0.004050   0.186307
    19  H   -0.013386   0.006128   0.001250   0.002078   0.357711  -0.078151
    20  H    0.003888  -0.008587  -0.000709   0.002415   0.436655   0.049921
    21  H   -0.002215   0.026866   0.009200  -0.008219   0.015610  -0.027207
    22  H    0.001145  -0.009817   0.000125  -0.007482  -0.005663  -0.006870
    23  H   -0.033440   0.003265   0.000048  -0.000846   0.000946   0.035734
    24  H   -0.035167  -0.001142  -0.000287  -0.002827  -0.010446  -0.006458
    25  H   -0.028845  -0.014326   0.002774  -0.003048   0.018941  -0.025535
    26  H    0.018406  -0.017501  -0.001096   0.012935  -0.007209  -0.004893
    27  H   -0.051322   0.011181  -0.000064  -0.003133  -0.003669  -0.006729
    28  H    0.000506  -0.001088  -0.124726   0.000026   0.004275   0.015582
    29  H    0.228732   0.018963  -0.000133  -0.053252   0.011073  -0.049381
              13         14         15         16         17         18
     1  Cl  -0.040662  -0.000002  -0.034252  -0.000874  -0.024209  -0.020332
     2  S   -0.209210  -0.013443  -0.058428   0.027408  -0.959085  -1.190778
     3  O    0.035989   0.206588  -0.026933   0.022422  -0.002963   0.000651
     4  O    0.040703  -0.021928  -0.031291  -0.014168  -0.000694  -0.004937
     5  O    0.003988  -0.003107   0.011536   0.008261  -0.001364   0.013351
     6  N    0.551876  -0.043869  -0.458100   0.100501  -0.042390  -0.022537
     7  N   -0.260748   0.051628   0.179365  -0.028136   0.022547   0.009415
     8  N    0.250531  -0.090441  -0.153662   0.149434  -0.078913  -0.035878
     9  N   -0.050637   0.000269   0.386958  -0.002324  -0.193031  -0.079487
    10  N   -0.320228   0.130301   0.271445  -0.147603  -0.025160  -0.003505
    11  C    0.229381  -0.219374  -0.260565   0.009654   0.022388   0.004050
    12  C   -0.743571  -0.157023   0.255645  -0.573537   0.393519   0.186307
    13  C   11.850133  -0.212378  -4.352282   0.094272  -1.173013  -0.104945
    14  C   -0.212378   5.497563   0.143349  -0.136256   0.027711   0.001076
    15  C   -4.352282   0.143349  12.326862  -0.057044  -1.539574  -0.074452
    16  C    0.094272  -0.136256  -0.057044   5.559803  -0.020898  -0.009560
    17  C   -1.173013   0.027711  -1.539574  -0.020898   8.533944   0.625861
    18  C   -0.104945   0.001076  -0.074452  -0.009560   0.625861   7.026781
    19  H    0.062507  -0.040273   0.006702   0.039344  -0.053481  -0.003523
    20  H   -0.051642   0.023157   0.000516  -0.013598   0.038431   0.002078
    21  H    0.548522  -0.014215  -0.148583   0.004094  -0.077021  -0.017503
    22  H    0.481451  -0.000112  -0.111329  -0.003079   0.002205  -0.011939
    23  H    0.004526   0.435965  -0.003693  -0.013964  -0.000013  -0.000228
    24  H    0.001610   0.321418   0.002862   0.035488   0.001262   0.000979
    25  H    0.013107  -0.010226  -0.003574   0.388886  -0.014759  -0.009342
    26  H   -0.014876   0.013644   0.003241   0.363557   0.007571   0.001937
    27  H    0.001134  -0.012769   0.002242   0.406906  -0.002832  -0.000326
    28  H   -0.106247   0.001445  -0.318079  -0.002594   0.686070   0.050927
    29  H    0.013484  -0.025339  -0.007843  -0.020948   0.001259   0.000157
              19         20         21         22         23         24
     1  Cl   0.000328  -0.000137   0.001428  -0.000655  -0.000003  -0.000066
     2  S    0.012786  -0.011515   0.032434   0.013558  -0.000286  -0.002401
     3  O   -0.001729  -0.079823   0.009034  -0.003055  -0.076994  -0.029806
     4  O    0.000904  -0.001191   0.003096  -0.003204  -0.003823  -0.001785
     5  O   -0.000317   0.000243  -0.001673   0.002187   0.000649   0.000031
     6  N   -0.039498  -0.064503  -0.053335  -0.024934   0.002133   0.011598
     7  N   -0.013386   0.003888  -0.002215   0.001145  -0.033440  -0.035167
     8  N    0.006128  -0.008587   0.026866  -0.009817   0.003265  -0.001142
     9  N    0.001250  -0.000709   0.009200   0.000125   0.000048  -0.000287
    10  N    0.002078   0.002415  -0.008219  -0.007482  -0.000846  -0.002827
    11  C    0.357711   0.436655   0.015610  -0.005663   0.000946  -0.010446
    12  C   -0.078151   0.049921  -0.027207  -0.006870   0.035734  -0.006458
    13  C    0.062507  -0.051642   0.548522   0.481451   0.004526   0.001610
    14  C   -0.040273   0.023157  -0.014215  -0.000112   0.435965   0.321418
    15  C    0.006702   0.000516  -0.148583  -0.111329  -0.003693   0.002862
    16  C    0.039344  -0.013598   0.004094  -0.003079  -0.013964   0.035488
    17  C   -0.053481   0.038431  -0.077021   0.002205  -0.000013   0.001262
    18  C   -0.003523   0.002078  -0.017503  -0.011939  -0.000228   0.000979
    19  H    0.618583  -0.078725   0.017443  -0.003758  -0.001633   0.011492
    20  H   -0.078725   0.536490  -0.025876   0.007033  -0.001060  -0.000078
    21  H    0.017443  -0.025876   0.602228  -0.050368  -0.000014  -0.000075
    22  H   -0.003758   0.007033  -0.050368   0.505019  -0.000127   0.000455
    23  H   -0.001633  -0.001060  -0.000014  -0.000127   0.531651  -0.062763
    24  H    0.011492  -0.000078  -0.000075   0.000455  -0.062763   0.563828
    25  H   -0.011250   0.002120  -0.000868   0.000725   0.004502   0.000097
    26  H    0.004231  -0.000537   0.000554  -0.001173  -0.006858   0.002781
    27  H    0.001718  -0.000757   0.000048  -0.000007   0.005014  -0.011940
    28  H   -0.006027   0.003607  -0.011779   0.003752  -0.000022   0.000174
    29  H   -0.002316   0.000827   0.000903  -0.000469  -0.012872   0.006264
              25         26         27         28         29
     1  Cl  -0.000116   0.001270   0.000185  -0.001582  -0.000127
     2  S    0.025934  -0.010014   0.000480  -0.001488   0.003115
     3  O   -0.010699   0.007044   0.004146   0.000009  -0.003997
     4  O   -0.000976   0.025760  -0.002682  -0.000060   0.082566
     5  O    0.002389  -0.009384  -0.000120   0.000010  -0.002367
     6  N    0.038834  -0.024481   0.004465   0.000541   0.008045
     7  N   -0.028845   0.018406  -0.051322   0.000506   0.228732
     8  N   -0.014326  -0.017501   0.011181  -0.001088   0.018963
     9  N    0.002774  -0.001096  -0.000064  -0.124726  -0.000133
    10  N   -0.003048   0.012935  -0.003133   0.000026  -0.053252
    11  C    0.018941  -0.007209  -0.003669   0.004275   0.011073
    12  C   -0.025535  -0.004893  -0.006729   0.015582  -0.049381
    13  C    0.013107  -0.014876   0.001134  -0.106247   0.013484
    14  C   -0.010226   0.013644  -0.012769   0.001445  -0.025339
    15  C   -0.003574   0.003241   0.002242  -0.318079  -0.007843
    16  C    0.388886   0.363557   0.406906  -0.002594  -0.020948
    17  C   -0.014759   0.007571  -0.002832   0.686070   0.001259
    18  C   -0.009342   0.001937  -0.000326   0.050927   0.000157
    19  H   -0.011250   0.004231   0.001718  -0.006027  -0.002316
    20  H    0.002120  -0.000537  -0.000757   0.003607   0.000827
    21  H   -0.000868   0.000554   0.000048  -0.011779   0.000903
    22  H    0.000725  -0.001173  -0.000007   0.003752  -0.000469
    23  H    0.004502  -0.006858   0.005014  -0.000022  -0.012872
    24  H    0.000097   0.002781  -0.011940   0.000174   0.006264
    25  H    0.517617  -0.052565  -0.040041  -0.000684   0.007522
    26  H   -0.052565   0.488052  -0.016835   0.000252  -0.004072
    27  H   -0.040041  -0.016835   0.504363  -0.000135  -0.012015
    28  H   -0.000684   0.000252  -0.000135   0.632313   0.000068
    29  H    0.007522  -0.004072  -0.012015   0.000068   0.347226
 Mulliken charges:
               1
     1  Cl   0.287981
     2  S    0.413375
     3  O   -0.267412
     4  O   -0.073289
     5  O    0.054780
     6  N    0.107551
     7  N   -0.417544
     8  N    0.175196
     9  N   -0.026898
    10  N   -0.416482
    11  C    0.122908
    12  C   -0.462129
    13  C   -0.542774
    14  C    0.146640
    15  C    0.048961
    16  C   -0.165448
    17  C   -0.153368
    18  C   -0.334298
    19  H    0.190862
    20  H    0.231354
    21  H    0.167492
    22  H    0.226387
    23  H    0.194208
    24  H    0.204903
    25  H    0.203407
    26  H    0.220256
    27  H    0.223495
    28  H    0.174956
    29  H    0.464931
 Sum of Mulliken charges =   1.00000
 Mulliken charges with hydrogens summed into heavy atoms:
               1
     1  Cl   0.287981
     2  S    0.413375
     3  O   -0.267412
     4  O   -0.073289
     5  O    0.054780
     6  N    0.107551
     7  N    0.047386
     8  N    0.175196
     9  N   -0.026898
    10  N   -0.416482
    11  C    0.545125
    12  C   -0.462129
    13  C   -0.148895
    14  C    0.545751
    15  C    0.048961
    16  C    0.481710
    17  C    0.021588
    18  C   -0.334298
 Electronic spatial extent (au):  <R**2>=           5459.4268
 Charge=              1.0000 electrons
 Dipole moment (field-independent basis, Debye):
    X=             10.9716    Y=             -4.5843    Z=              3.5006  Tot=             12.3954
 Quadrupole moment (field-independent basis, Debye-Ang):
   XX=            -85.2972   YY=           -106.5225   ZZ=           -102.5101
   XY=             -9.2228   XZ=             14.5189   YZ=              8.0670
 Traceless Quadrupole moment (field-independent basis, Debye-Ang):
   XX=             12.8127   YY=             -8.4125   ZZ=             -4.4002
   XY=             -9.2228   XZ=             14.5189   YZ=              8.0670
 Octapole moment (field-independent basis, Debye-Ang**2):
  XXX=            124.5682  YYY=            -54.5166  ZZZ=             20.5548  XYY=             19.6960
  XXY=             34.6398  XXZ=             45.2886  XZZ=             38.1732  YZZ=              2.2966
  YYZ=             -5.8157  XYZ=             -9.3194
 Hexadecapole moment (field-independent basis, Debye-Ang**3):
 XXXX=          -3925.9070 YYYY=          -1765.7770 ZZZZ=           -654.3780 XXXY=           -117.5719
 XXXZ=            150.1558 YYYX=           -106.0341 YYYZ=             38.3950 ZZZX=             47.0844
 ZZZY=             19.8418 XXYY=          -1032.3043 XXZZ=           -780.9850 YYZZ=           -402.5745
 XXYZ=             17.9656 YYXZ=             -2.5040 ZZXY=            -19.7345
 N-N= 1.682832876487D+03 E-N=-7.271171284397D+03  KE= 1.658075983174D+03
 Merz-Kollman atomic radii used.

 **********************************************************************

            Electrostatic Properties Using The SCF Density

 **********************************************************************

       Atomic Center    1 is at  -4.358150  0.657566  0.902160
       Atomic Center    2 is at  -1.765658  0.291788 -0.593713
       Atomic Center    3 is at   3.535523 -1.615446 -0.089826
       Atomic Center    4 is at   1.908845  2.779745  0.135473
       Atomic Center    5 is at   0.303668  3.156454 -1.305033
       Atomic Center    6 is at   1.288844 -1.216351 -0.579045
       Atomic Center    7 is at   2.577884  0.374314  0.837288
       Atomic Center    8 is at   0.889613  1.073633 -0.888851
       Atomic Center    9 is at  -3.122952 -1.661006  0.460628
       Atomic Center   10 is at   1.032162  2.460329 -0.675527
       Atomic Center   11 is at   2.265312 -2.274033 -0.186115
       Atomic Center   12 is at   1.532703  0.093708 -0.282243
       Atomic Center   13 is at   0.120951 -1.577148 -1.469112
       Atomic Center   14 is at   3.641800 -0.738113  1.007312
       Atomic Center   15 is at  -1.139203 -1.327975 -0.747924
       Atomic Center   16 is at   1.832867  0.607870  2.134784
       Atomic Center   17 is at  -1.989374 -2.222441 -0.144187
       Atomic Center   18 is at  -3.160165 -0.349949  0.316171
       Atomic Center   19 is at   1.965863 -2.767595  0.763020
       Atomic Center   20 is at   2.424682 -3.010223 -1.013780
       Atomic Center   21 is at   0.225317 -2.649440 -1.765656
       Atomic Center   22 is at   0.185207 -0.974796 -2.417456
       Atomic Center   23 is at   4.673015 -0.314203  0.907594
       Atomic Center   24 is at   3.507367 -1.260661  1.980663
       Atomic Center   25 is at   1.157651 -0.229301  2.391334
       Atomic Center   26 is at   1.216491  1.534873  2.074574
       Atomic Center   27 is at   2.531766  0.766856  2.980396
       Atomic Center   28 is at  -1.884148 -3.306195 -0.095474
       Atomic Center   29 is at   3.063380  1.309491  0.578981
    1358 points will be used for fitting atomic charges
 Fitting point charges to electrostatic potential
 The dipole moment will be constrained to the correct value
 Charges from ESP fit, RMS=   0.00236 RRMS=   0.02133:
 ESP charges:
               1
     1  Cl   0.043823
     2  S   -0.007606
     3  O   -0.296561
     4  O   -0.508981
     5  O   -0.276059
     6  N   -0.220944
     7  N   -0.170563
     8  N   -0.521226
     9  N   -0.472896
    10  N    0.842080
    11  C    0.086412
    12  C    0.532214
    13  C   -0.139700
    14  C    0.036264
    15  C   -0.072904
    16  C   -0.318402
    17  C    0.173383
    18  C    0.267497
    19  H    0.120723
    20  H    0.180743
    21  H    0.141799
    22  H    0.193696
    23  H    0.157440
    24  H    0.161018
    25  H    0.161726
    26  H    0.191496
    27  H    0.177084
    28  H    0.119223
    29  H    0.419220
 Sum of ESP charges =   1.00000
 ESP charges with hydrogens summed into heavy atoms:
               1
     1  Cl   0.043823
     2  S   -0.007606
     3  O   -0.296561
     4  O   -0.508981
     5  O   -0.276059
     6  N   -0.220944
     7  N    0.248657
     8  N   -0.521226
     9  N   -0.472896
    10  N    0.842080
    11  C    0.387877
    12  C    0.532214
    13  C    0.195795
    14  C    0.354723
    15  C   -0.072904
    16  C    0.211905
    17  C    0.292606
    18  C    0.267497
 Charge=   1.00000 Dipole=    10.9716    -4.5843     3.5006 Tot=    12.3954
 -----------------------------------------------------------------

              Electrostatic Properties (Atomic Units)

 -----------------------------------------------------------------
    Center     Electric         -------- Electric Field --------
               Potential          X             Y             Z
 -----------------------------------------------------------------
    1 Atom    -64.244675
    2 Atom    -59.021932
    3 Atom    -22.087028
    4 Atom    -22.124979
    5 Atom    -22.115315
    6 Atom    -18.094089
    7 Atom    -18.024141
    8 Atom    -18.148741
    9 Atom    -18.228288
   10 Atom    -17.913539
   11 Atom    -14.445286
   12 Atom    -14.393422
   13 Atom    -14.511320
   14 Atom    -14.432610
   15 Atom    -14.567296
   16 Atom    -14.499872
   17 Atom    -14.570468
   18 Atom    -14.504432
   19 Atom     -0.905851
   20 Atom     -0.903886
   21 Atom     -0.924788
   22 Atom     -0.937638
   23 Atom     -0.888851
   24 Atom     -0.888962
   25 Atom     -0.903665
   26 Atom     -0.910468
   27 Atom     -0.903689
   28 Atom     -0.962432
   29 Atom     -0.769064
 -----------------------------------------------------------------
 Calling FoFJK, ICntrl=      2127 FMM=F ISym2X=0 I1Cent= 0 IOpClX= 0 NMat=1 NMatS=1 NMatT=0.
 ***** Axes restored to original set *****
 -------------------------------------------------------------------
 Center     Atomic                   Forces (Hartrees/Bohr)
 Number     Number              X              Y              Z
 -------------------------------------------------------------------
      1       17          -0.015089593    0.011254478    0.007976333
      2       16          -0.018403766    0.006119774    0.007054136
      3        8          -0.005245776   -0.003465584    0.015907922
      4        8           0.011677490    0.025148688    0.008009049
      5        8          -0.012332657    0.016420964   -0.009474470
      6        7           0.008011597    0.014359255    0.002986329
      7        7           0.006666776    0.009999917    0.002234699
      8        7           0.001489194   -0.038371520   -0.008789020
      9        7           0.007745273    0.008890166   -0.004861097
     10        7           0.019130606   -0.043079628    0.016616103
     11        6           0.014886176    0.011054693   -0.008111483
     12        6           0.002149957    0.017466101   -0.011719120
     13        6           0.011435297   -0.000676515   -0.018968866
     14        6           0.015001621   -0.014995908   -0.019315164
     15        6          -0.015501942   -0.003425533    0.003821826
     16        6          -0.015355715    0.016530240    0.021271953
     17        6          -0.018450551    0.015018768    0.009694768
     18        6           0.033686521   -0.040787566   -0.017304500
     19        1           0.002925023    0.003488918   -0.007613475
     20        1          -0.011482222    0.010975615    0.012355594
     21        1           0.000224894    0.014048838    0.008591709
     22        1           0.002159059   -0.008377206    0.016587884
     23        1          -0.018609806   -0.000123693    0.006914023
     24        1          -0.003374262    0.009135185   -0.008842285
     25        1           0.009114138    0.002181583   -0.008978815
     26        1           0.009727481   -0.013051149   -0.005708348
     27        1          -0.000242523   -0.003866385   -0.012504118
     28        1           0.001619889    0.004500600   -0.001889972
     29        1          -0.023562179   -0.026373095    0.004058402
 -------------------------------------------------------------------
 Cartesian Forces:  Max     0.043079628 RMS     0.014336613

 GradGradGradGradGradGradGradGradGradGradGradGradGradGradGradGradGradGrad
 Berny optimization.
 FormGI is forming the generalized inverse of G from B-inverse, IUseBI=4.
 Internal  Forces:  Max     0.042263671 RMS     0.010717005
 Search for a local minimum.
 Step number   1 out of a maximum of  150
 All quantities printed in internal units (Hartrees-Bohrs-Radians)
 Mixed Optimization -- RFO/linear search
 Second derivative matrix not updated -- first step.
 ITU=  0
     Eigenvalues ---    0.00230   0.00230   0.00371   0.00818   0.01013
     Eigenvalues ---    0.01121   0.01159   0.01270   0.01419   0.01586
     Eigenvalues ---    0.01684   0.02153   0.02263   0.02310   0.02753
     Eigenvalues ---    0.03309   0.03798   0.04567   0.04745   0.05174
     Eigenvalues ---    0.05257   0.05478   0.05634   0.06038   0.06530
     Eigenvalues ---    0.06545   0.07409   0.09530   0.10442   0.11254
     Eigenvalues ---    0.11352   0.11497   0.12991   0.15805   0.15999
     Eigenvalues ---    0.16000   0.16000   0.16000   0.17725   0.19814
     Eigenvalues ---    0.21895   0.23362   0.23472   0.24753   0.24986
     Eigenvalues ---    0.24995   0.24999   0.24999   0.25000   0.25000
     Eigenvalues ---    0.25000   0.26366   0.27119   0.27182   0.30679
     Eigenvalues ---    0.30923   0.31032   0.31143   0.31625   0.31654
     Eigenvalues ---    0.31826   0.32092   0.32295   0.32300   0.32503
     Eigenvalues ---    0.32758   0.33059   0.34820   0.35365   0.35410
     Eigenvalues ---    0.38054   0.39562   0.41988   0.43873   0.43966
     Eigenvalues ---    0.48082   0.50070   0.59711   0.61989   0.88530
     Eigenvalues ---    1.11040
 RFO step:  Lambda=-5.49319089D-02 EMin= 2.30000000D-03
 Linear search not attempted -- first point.
 Maximum step size (   0.300) exceeded in Quadratic search.
    -- Step size scaled by   0.801
 Iteration  1 RMS(Cart)=  0.20805256 RMS(Int)=  0.00788827
 Iteration  2 RMS(Cart)=  0.01400514 RMS(Int)=  0.00055795
 Iteration  3 RMS(Cart)=  0.00008839 RMS(Int)=  0.00055742
 Iteration  4 RMS(Cart)=  0.00000008 RMS(Int)=  0.00055742
 Variable       Old X    -DE/DX   Delta X   Delta X   Delta X     New X
                                 (Linear)    (Quad)   (Total)
    R1        3.15852   0.02040   0.00000   0.03626   0.03626   3.19478
    R2        3.29477   0.00489   0.00000   0.01356   0.01356   3.30833
    R3        3.37218  -0.00799   0.00000  -0.01903  -0.01901   3.35316
    R4        2.70993  -0.01632   0.00000  -0.02460  -0.02445   2.68547
    R5        2.66225  -0.01843   0.00000  -0.02710  -0.02669   2.63556
    R6        2.33618   0.02003   0.00000   0.01707   0.01707   2.35324
    R7        2.24518   0.02220   0.00000   0.01526   0.01526   2.26044
    R8        2.81979  -0.01039   0.00000  -0.02293  -0.02287   2.79693
    R9        2.57988  -0.03139   0.00000  -0.04719  -0.04742   2.53247
   R10        2.85741   0.00030   0.00000   0.00066   0.00066   2.85806
   R11        2.94245  -0.01696   0.00000  -0.04517  -0.04554   2.89691
   R12        2.92653  -0.00610   0.00000  -0.01302  -0.01302   2.91350
   R13        2.86161  -0.00639   0.00000  -0.01406  -0.01406   2.84755
   R14        2.05014  -0.03424   0.00000  -0.06706  -0.06706   1.98309
   R15        2.66495   0.00267   0.00000   0.00433   0.00433   2.66928
   R16        2.49400  -0.04226   0.00000  -0.05016  -0.05016   2.44384
   R17        2.64967  -0.02431   0.00000  -0.04001  -0.04002   2.60965
   R18        2.49352  -0.02452   0.00000  -0.03042  -0.03041   2.46312
   R19        2.09932  -0.00884   0.00000  -0.01864  -0.01864   2.08068
   R20        2.11481  -0.01799   0.00000  -0.03880  -0.03880   2.07601
   R21        2.78386   0.02333   0.00000   0.04574   0.04574   2.82960
   R22        2.11163  -0.01574   0.00000  -0.03378  -0.03378   2.07785
   R23        2.12652  -0.01834   0.00000  -0.04022  -0.04022   2.08630
   R24        2.11535  -0.01781   0.00000  -0.03842  -0.03842   2.07693
   R25        2.10307  -0.01162   0.00000  -0.02462  -0.02462   2.07845
   R26        2.59613  -0.00316   0.00000  -0.00416  -0.00418   2.59195
   R27        2.08948  -0.00930   0.00000  -0.01932  -0.01932   2.07016
   R28        2.10675  -0.01592   0.00000  -0.03393  -0.03393   2.07282
   R29        2.09478  -0.01025   0.00000  -0.02145  -0.02145   2.07333
   R30        2.05969  -0.00440   0.00000  -0.00875  -0.00875   2.05094
    A1        1.56258  -0.00961   0.00000  -0.01793  -0.01790   1.54469
    A2        1.98790  -0.00952   0.00000  -0.03524  -0.03542   1.95248
    A3        2.10139  -0.00295   0.00000  -0.01644  -0.01666   2.08473
    A4        2.08439  -0.00697   0.00000  -0.01424  -0.01407   2.07032
    A5        2.08852   0.00987   0.00000   0.02917   0.02916   2.11768
    A6        1.99394   0.00170   0.00000   0.00467   0.00429   1.99823
    A7        1.88979  -0.00163   0.00000   0.00252   0.00264   1.89243
    A8        1.85932  -0.00274   0.00000  -0.02867  -0.02863   1.83070
    A9        1.93340   0.00136   0.00000   0.00760   0.00767   1.94107
   A10        1.91548   0.00153   0.00000   0.01629   0.01637   1.93185
   A11        1.86630  -0.00053   0.00000  -0.00440  -0.00464   1.86167
   A12        2.22853  -0.02449   0.00000  -0.06434  -0.06434   2.16419
   A13        1.95349  -0.00583   0.00000  -0.02402  -0.02400   1.92949
   A14        2.25366  -0.01921   0.00000  -0.05048  -0.05050   2.20316
   A15        2.00973   0.02884   0.00000   0.07572   0.07569   2.08543
   A16        2.01974  -0.00965   0.00000  -0.02536  -0.02539   1.99434
   A17        1.84605   0.00923   0.00000   0.03528   0.03557   1.88162
   A18        1.96647  -0.00350   0.00000  -0.01655  -0.01676   1.94971
   A19        1.79839   0.00414   0.00000   0.03513   0.03565   1.83404
   A20        1.94282  -0.00195   0.00000  -0.01062  -0.01074   1.93209
   A21        1.94414  -0.00754   0.00000  -0.03139  -0.03223   1.91191
   A22        1.95842   0.00036   0.00000  -0.00713  -0.00759   1.95083
   A23        2.03660  -0.00137   0.00000  -0.00905  -0.00949   2.02711
   A24        2.12414  -0.00351   0.00000  -0.00646  -0.00626   2.11789
   A25        2.12204   0.00482   0.00000   0.01535   0.01557   2.13761
   A26        1.90940   0.03181   0.00000   0.09519   0.09418   2.00358
   A27        1.88920  -0.01422   0.00000  -0.06188  -0.06046   1.82874
   A28        1.90101  -0.00987   0.00000  -0.01376  -0.01745   1.88356
   A29        1.95209  -0.01461   0.00000  -0.06344  -0.06135   1.89074
   A30        1.95075  -0.00008   0.00000   0.03064   0.02870   1.97945
   A31        1.85947   0.00550   0.00000   0.00806   0.00772   1.86718
   A32        1.88600  -0.00038   0.00000   0.00723   0.00766   1.89366
   A33        1.80900   0.00408   0.00000   0.03435   0.03434   1.84333
   A34        1.96017   0.00512   0.00000   0.01197   0.01174   1.97190
   A35        1.92951  -0.00338   0.00000  -0.02099  -0.02141   1.90810
   A36        1.92870  -0.00744   0.00000  -0.03562  -0.03603   1.89267
   A37        1.94658   0.00262   0.00000   0.00700   0.00602   1.95260
   A38        2.10341   0.02765   0.00000   0.07067   0.07059   2.17401
   A39        1.92159  -0.00770   0.00000  -0.01654  -0.01661   1.90498
   A40        2.25800  -0.01998   0.00000  -0.05446  -0.05448   2.20352
   A41        1.96326  -0.00976   0.00000  -0.03859  -0.03917   1.92409
   A42        1.93262  -0.00508   0.00000  -0.01664  -0.01687   1.91575
   A43        1.94502  -0.00790   0.00000  -0.02956  -0.03003   1.91499
   A44        1.88018   0.00801   0.00000   0.02998   0.02965   1.90983
   A45        1.89295   0.00844   0.00000   0.02736   0.02657   1.91952
   A46        1.84473   0.00810   0.00000   0.03450   0.03439   1.87912
   A47        2.01437   0.00991   0.00000   0.02655   0.02653   2.04090
   A48        2.04532  -0.00226   0.00000  -0.00323  -0.00322   2.04210
   A49        2.22343  -0.00766   0.00000  -0.02336  -0.02336   2.20008
   A50        2.12011  -0.00446   0.00000  -0.01029  -0.01032   2.10978
   A51        2.19046  -0.00877   0.00000  -0.02161  -0.02164   2.16882
   A52        1.97262   0.01323   0.00000   0.03189   0.03191   2.00453
    D1        3.13515  -0.00189   0.00000  -0.01771  -0.01858   3.11657
    D2        0.01201  -0.00005   0.00000   0.00047   0.00043   0.01244
    D3        3.13423  -0.00056   0.00000  -0.00650  -0.00650   3.12773
    D4       -0.00595   0.00021   0.00000   0.00297   0.00295  -0.00299
    D5        1.22637  -0.00037   0.00000  -0.01280  -0.01294   1.21343
    D6       -0.89987  -0.00205   0.00000  -0.01343  -0.01318  -0.91304
    D7       -3.01428  -0.00325   0.00000  -0.01825  -0.01738  -3.03166
    D8       -1.07753   0.00474   0.00000   0.02301   0.02321  -1.05432
    D9       -3.12538   0.00675   0.00000   0.02684   0.02693  -3.09846
   D10        1.05432  -0.00160   0.00000  -0.00912  -0.00935   1.04497
   D11        3.13006  -0.00136   0.00000  -0.01303  -0.01272   3.11733
   D12       -0.43979   0.00039   0.00000   0.02012   0.02029  -0.41950
   D13        1.70158   0.00091   0.00000   0.01641   0.01627   1.71786
   D14       -2.38146  -0.00590   0.00000  -0.02527  -0.02478  -2.40624
   D15        2.55855   0.00079   0.00000   0.01042   0.01078   2.56933
   D16       -1.58326   0.00132   0.00000   0.00671   0.00677  -1.57650
   D17        0.61687  -0.00549   0.00000  -0.03497  -0.03428   0.58259
   D18       -0.33357  -0.00660   0.00000  -0.05439  -0.05402  -0.38759
   D19        2.83808  -0.00439   0.00000  -0.04864  -0.04852   2.78956
   D20        2.95162  -0.00563   0.00000  -0.04111  -0.04058   2.91104
   D21       -0.15992  -0.00342   0.00000  -0.03535  -0.03509  -0.19501
   D22        2.06207  -0.01202   0.00000  -0.11713  -0.11758   1.94449
   D23       -0.06908  -0.00470   0.00000  -0.05908  -0.05812  -0.12720
   D24       -2.08419   0.00165   0.00000  -0.02813  -0.02835  -2.11254
   D25       -1.22171  -0.01266   0.00000  -0.13052  -0.13117  -1.35288
   D26        2.93033  -0.00534   0.00000  -0.07246  -0.07170   2.85863
   D27        0.91521   0.00100   0.00000  -0.04151  -0.04193   0.87329
   D28        0.46776   0.00574   0.00000   0.04892   0.04889   0.51665
   D29       -2.70385   0.00338   0.00000   0.04276   0.04292  -2.66093
   D30       -1.69553   0.00402   0.00000   0.03383   0.03375  -1.66177
   D31        1.41605   0.00166   0.00000   0.02768   0.02778   1.44383
   D32        2.58568   0.00678   0.00000   0.05206   0.05190   2.63757
   D33       -0.58593   0.00443   0.00000   0.04591   0.04593  -0.54001
   D34        0.19709   0.00128   0.00000  -0.01169  -0.01185   0.18524
   D35        2.16560   0.00418   0.00000   0.02218   0.02182   2.18742
   D36       -1.95397  -0.00010   0.00000  -0.00872  -0.00866  -1.96263
   D37        2.33680   0.00144   0.00000   0.00098   0.00093   2.33773
   D38       -1.97788   0.00434   0.00000   0.03485   0.03460  -1.94327
   D39        0.18574   0.00006   0.00000   0.00396   0.00413   0.18987
   D40       -1.88952   0.00256   0.00000   0.01025   0.01030  -1.87922
   D41        0.07898   0.00546   0.00000   0.04412   0.04397   0.12296
   D42        2.24260   0.00119   0.00000   0.01323   0.01350   2.25610
   D43        0.96515   0.00294   0.00000   0.02399   0.02376   0.98891
   D44       -1.13968   0.00293   0.00000   0.02375   0.02359  -1.11609
   D45        3.09538   0.00106   0.00000   0.01001   0.01008   3.10547
   D46       -1.23400   0.00100   0.00000   0.01109   0.01106  -1.22295
   D47        2.94435   0.00100   0.00000   0.01085   0.01088   2.95523
   D48        0.89623  -0.00088   0.00000  -0.00289  -0.00262   0.89361
   D49        2.96255  -0.00130   0.00000  -0.01023  -0.01034   2.95221
   D50        0.85772  -0.00130   0.00000  -0.01047  -0.01051   0.84720
   D51       -1.19041  -0.00318   0.00000  -0.02421  -0.02401  -1.21442
   D52        0.06095   0.00459   0.00000   0.05249   0.05282   0.11377
   D53       -3.09053   0.00314   0.00000   0.04057   0.04023  -3.05030
   D54        3.13200   0.00376   0.00000   0.04507   0.04516  -3.10603
   D55        0.02193   0.00619   0.00000   0.05155   0.05146   0.07339
   D56        0.01176   0.00059   0.00000   0.00670   0.00656   0.01832
   D57       -3.11845   0.00085   0.00000   0.01037   0.01008  -3.10837
   D58        3.14125   0.00037   0.00000   0.00417   0.00418  -3.13775
   D59       -0.00183  -0.00044   0.00000  -0.00573  -0.00562  -0.00745
   D60        1.36645   0.00754   0.00000   0.07034   0.07209   1.43854
   D61       -1.79756   0.00561   0.00000   0.04912   0.05062  -1.74694
   D62       -2.82377   0.00159   0.00000   0.01579   0.01568  -2.80809
   D63        0.29540  -0.00034   0.00000  -0.00543  -0.00579   0.28961
   D64       -0.74047  -0.00144   0.00000   0.00368   0.00242  -0.73805
   D65        2.37871  -0.00337   0.00000  -0.01754  -0.01905   2.35966
   D66       -0.01601  -0.00038   0.00000  -0.00429  -0.00425  -0.02026
   D67        3.11283  -0.00061   0.00000  -0.00819  -0.00793   3.10490
   D68       -3.13704   0.00100   0.00000   0.01420   0.01344  -3.12360
   D69       -0.00819   0.00077   0.00000   0.01029   0.00976   0.00157
         Item               Value     Threshold  Converged?
 Maximum Force            0.042264     0.000450     NO 
 RMS     Force            0.010717     0.000300     NO 
 Maximum Displacement     1.010476     0.001800     NO 
 RMS     Displacement     0.211194     0.001200     NO 
 Predicted change in Energy=-3.132912D-02
 GradGradGradGradGradGradGradGradGradGradGradGradGradGradGradGradGradGrad

                          Input orientation:                          
 ---------------------------------------------------------------------
 Center     Atomic      Atomic             Coordinates (Angstroms)
 Number     Number       Type             X           Y           Z
 ---------------------------------------------------------------------
      1         17           0       -4.789460    0.122845    0.908914
      2         16           0       -2.129225    0.224576   -0.504923
      3          8           0        3.485049   -1.652373   -0.072138
      4          8           0        2.373596    2.800135    0.001574
      5          8           0        0.731731    3.289400   -1.342784
      6          7           0        1.256652   -1.094755   -0.541167
      7          7           0        2.632750    0.385018    0.827442
      8          7           0        1.059532    1.160077   -0.926327
      9          7           0       -3.218713   -1.957123    0.414131
     10          7           0        1.410300    2.514800   -0.734209
     11          6           0        2.171786   -2.189897   -0.148987
     12          6           0        1.602113    0.175043   -0.287780
     13          6           0        0.052972   -1.427067   -1.394481
     14          6           0        3.626901   -0.779721    1.006511
     15          6           0       -1.266620   -1.286185   -0.701006
     16          6           0        1.895297    0.674439    2.109246
     17          6           0       -2.014035   -2.303816   -0.165199
     18          6           0       -3.423137   -0.673899    0.311834
     19          1           0        1.857640   -2.635915    0.807408
     20          1           0        2.215573   -2.937748   -0.952526
     21          1           0        0.187650   -2.482871   -1.670429
     22          1           0        0.124074   -0.838732   -2.325971
     23          1           0        4.654148   -0.394291    0.942116
     24          1           0        3.429367   -1.259820    1.976149
     25          1           0        1.196368   -0.138020    2.336158
     26          1           0        1.341252    1.616302    2.013869
     27          1           0        2.612931    0.792022    2.930788
     28          1           0       -1.753204   -3.357316   -0.167028
     29          1           0        3.137972    1.266640    0.565250
 ---------------------------------------------------------------------
                    Distance matrix (angstroms):
                    1          2          3          4          5
     1  Cl   0.000000
     2  S    3.014322   0.000000
     3  O    8.519470   5.935513   0.000000
     4  O    7.700683   5.212047   4.589727   0.000000
     5  O    6.751353   4.275538   5.797967   2.177705   0.000000
     6  N    6.335673   3.634021   2.344500   4.088068   4.487643
     7  N    7.427286   4.947458   2.384663   2.565543   4.093799
[...]
 7,0.00000254,0.00000395,-0.00091696,0.00145861,-0.00110672,-0.00000554
 ,-0.00000558,-0.00000076,-0.00000615,0.00001058,0.00000357,0.00010524,
 0.00004368,0.00000541,-0.00022448,0.00010662,0.00002963,0.00000420,-0.
 00001058,0.00000470,0.00000421,-0.00000042,0.00001345,0.30900196,-0.00
 000764,0.00000552,0.00000480,-0.00000821,0.00001364,0.00000587,-0.0301
 0374,-0.01311851,-0.00271169,-0.00043135,-0.00039315,0.00002083,-0.000
 16350,-0.00005562,-0.00009486,0.00014405,0.00081862,0.00030811,0.02961
 853,0.00116691,-0.00127214,0.00028200,0.00020973,0.00126992,-0.0000074
 2,0.00005462,-0.00001527,0.00051207,0.00066857,-0.00010298,0.00170020,
 -0.00404242,-0.00251632,0.00026305,-0.00288931,-0.00351854,-0.00006154
 ,0.00024417,-0.00009544,-0.08698955,-0.07951489,0.02059825,0.00002501,
 -0.00001219,0.00000105,0.00128700,-0.00136267,0.00179339,0.00001637,-0
 .00002231,-0.00001407,-0.00001320,-0.00002825,0.00002722,0.00003760,0.
 00015461,0.00010527,-0.00130294,-0.00000372,-0.00015111,0.00005849,0.0
 0005632,0.00010973,-0.00007293,-0.00000200,-0.00002378,0.09191059,0.09
 553647,-0.00001079,0.00000478,0.00000764,-0.00000428,0.00000083,0.0000
 0206,-0.02804233,-0.01426659,0.00161982,0.00044403,-0.00023392,0.00021
 195,0.00013601,0.00007530,0.00004644,0.00034721,0.00018824,0.00016319,
 -0.00947027,-0.00005223,0.00238987,0.00000373,0.00052154,-0.00063054,-
 0.00001207,0.00001187,0.00000824,-0.00066280,-0.00047025,-0.00015983,-
 0.00004962,-0.00436895,-0.00186453,-0.00041477,0.00021850,0.00051565,0
 .00001775,0.00003042,-0.00001831,0.06130012,0.02348180,-0.06725992,0.0
 0002049,-0.00001038,-0.00000886,-0.00008745,0.00010026,-0.00046876,0.0
 0001152,-0.00000334,-0.00001439,0.00000455,-0.00000361,-0.00000257,-0.
 00054417,-0.00017481,0.00013945,-0.00126752,-0.00017562,0.00020209,0.0
 0000256,0.00000925,0.00004825,-0.00002871,0.00001847,0.00001185,-0.047
 83133,-0.01382722,0.06490874,0.00000910,-0.00000502,-0.00000391,0.0000
 0920,0.00001513,-0.00000147,0.00620739,0.00227369,-0.00684789,-0.00016
 924,0.00089926,-0.00081572,-0.00024790,0.00012295,-0.00001665,-0.00003
 643,-0.00085835,0.00029946,-0.00500598,0.01735481,-0.02157721,-0.00054
 170,-0.00071011,-0.00132330,0.00000153,-0.00003071,0.00001632,0.000611
 93,-0.00016718,0.00049723,0.00062166,0.00151509,-0.00325353,0.00024694
 ,0.00415341,0.00127446,0.00000298,-0.00016718,0.00001146,-0.06327726,-
 0.02371800,0.04242378,0.00004115,0.00000786,0.00001316,0.00153577,0.00
 066876,-0.00219579,-0.00001000,-0.00000292,0.00000670,-0.00001095,0.00
 001299,-0.00000709,0.00025897,-0.00006974,0.00087318,0.00010136,-0.000
 06092,0.00016783,-0.00003689,-0.00001629,-0.00004937,0.00004215,0.0000
 2008,0.00003348,0.00090601,-0.00851300,0.02633506,0.06173283,0.0000122
 7,-0.00000458,-0.00000880,-0.00001159,-0.00001244,0.00000496,-0.002530
 98,-0.00089350,-0.03848967,0.00026571,-0.00079368,0.00061166,0.0001944
 1,-0.00012924,0.00005679,-0.00101913,0.00115847,0.00045132,0.00581261,
 -0.01370580,0.02232452,0.00094688,0.00083626,0.00100801,0.00002506,-0.
 00000174,-0.00002156,-0.00075652,0.00025956,-0.00054897,0.00690493,0.0
 0160215,-0.00189560,-0.00143703,-0.00507438,-0.00135564,-0.00004925,0.
 00018624,-0.00001701,-0.01680034,-0.07156718,0.07657523,0.00001002,0.0
 0002675,0.00000379,-0.00023057,0.00089201,0.00299000,-0.00000129,-0.00
 003141,0.00001342,-0.00001706,0.00002242,0.00001551,-0.00056055,0.0002
 3897,0.00116187,0.00001814,0.00005228,0.00007124,0.00007021,0.00001688
 ,0.00004070,-0.00003222,-0.00001345,-0.00002296,-0.00068109,0.00058586
 ,0.00897389,0.00683083,0.08717908,-0.00002521,0.00001171,0.00001651,0.
 00000733,-0.00000250,-0.00000096,-0.00143506,-0.01078419,-0.02731377,0
 .00005608,0.00024755,-0.00000498,-0.00000069,0.00008107,-0.00002349,-0
 .00054797,0.00021562,-0.00006441,0.00096164,0.00466931,-0.00330313,-0.
 00003741,0.00027299,0.00016813,-0.00003904,0.00004125,0.00002837,-0.00
 005651,-0.00021157,-0.00007565,0.00391480,0.00111710,0.00071194,0.0004
 8994,-0.00058095,-0.00002793,0.00013286,0.00017362,0.00000165,0.033409
 77,0.07784331,-0.28041062,0.00000849,-0.00003911,-0.00000135,0.0016433
 6,-0.00230629,0.00074161,0.00002932,0.00001752,-0.00002221,0.00000749,
 -0.00003952,-0.00000061,-0.00177727,-0.00031952,0.00017333,-0.00010892
 ,-0.00011052,0.00039429,0.00001631,0.00000525,0.00001499,-0.00004282,-
 0.00003040,-0.00001641,0.00034177,0.00165558,-0.00107771,-0.03608835,-
 0.07100946,0.30889668,0.00002227,0.00000652,-0.00000663,0.00008782,0.0
 0017608,0.00004177,-0.00013473,0.00013385,-0.00041480,0.00024432,-0.00
 081777,-0.00006598,0.00007609,-0.00006120,0.00007766,0.00020593,0.0000
 7958,0.00004682,-0.01242238,-0.01135585,0.00852661,0.00005840,0.000045
 55,0.00018654,-0.00003852,0.00013647,0.00003289,0.00003411,0.00009110,
 0.00006795,-0.00003446,-0.00061015,0.00049066,-0.00037926,0.00007899,-
 0.00141155,0.00014189,0.00016383,0.00007154,0.00070187,-0.00169120,0.0
 0119918,0.00013982,-0.00017108,0.00004486,-0.14598937,-0.12593686,0.03
 529768,0.00006177,0.00001168,-0.00005876,-0.00019805,-0.00015158,0.000
 11552,0.00015783,0.00035827,-0.00018074,0.00007993,0.00008665,-0.00019
 675,0.00000675,0.00001040,0.00004070,-0.00003773,-0.00000208,-0.000015
 44,0.00003927,0.00012566,-0.00046573,-0.00082413,0.00068043,-0.0004319
 9,0.15471281,-0.00001422,-0.00001240,0.00001449,-0.00016743,-0.0001920
 3,-0.00002397,-0.00013418,0.00005141,0.00015033,0.00004303,0.00064458,
 0.00040849,0.00003710,0.00005183,-0.00001591,0.00016952,-0.00003337,0.
 00021942,0.00999027,0.00957330,-0.00576327,0.00000981,0.00010171,-0.00
 008627,0.00008184,-0.00021940,-0.00001507,-0.00047031,-0.00027917,-0.0
 0042663,0.00006457,0.00010744,-0.00061116,0.00024494,0.00029364,0.0012
 4035,-0.00015190,-0.00004456,0.00001711,0.00017364,0.00131551,-0.00021
 749,-0.00000384,0.00025673,0.00007817,-0.13204737,-0.22408121,0.051091
 21,-0.00008766,-0.00009970,0.00009889,0.00015570,0.00027511,-0.0001875
 9,0.00018205,-0.00073408,-0.00048440,-0.00002245,-0.00002659,0.0000324
 2,0.00001849,-0.00000823,-0.00000912,0.00002033,0.00000509,0.00001607,
 -0.00005942,0.00001444,0.00002030,0.00004562,0.00007247,0.00001194,0.1
 3719589,0.23266574,0.00011398,-0.00003440,-0.00008153,0.00012901,0.000
 18874,0.00000213,-0.00040435,-0.00062920,-0.00032319,-0.00106695,0.000
 97472,-0.00051252,-0.00026077,0.00001603,-0.00021097,-0.00082145,-0.00
 044026,0.00018242,0.02209191,0.02181361,-0.01601729,-0.00036437,-0.000
 51387,-0.00014347,0.00002198,0.00009976,-0.00005504,0.00093830,0.00040
 773,0.00066737,0.00100264,-0.00008878,-0.00023545,0.00261135,0.0027591
 6,0.00104219,-0.00011187,-0.00002443,-0.00012305,-0.00140889,0.0016934
 2,0.00034009,0.00015712,-0.00011424,0.00000996,0.03061656,0.04279156,-
 0.06132998,-0.00001330,-0.00001474,0.00000022,-0.00025165,-0.00011757,
 0.00023794,0.00012305,-0.00065632,0.00001925,-0.00010670,-0.00005601,0
 .00011483,0.00000803,-0.00000077,0.00000976,0.00002843,0.00001507,0.00
 001016,-0.00002930,-0.00001863,0.00009796,-0.00012257,-0.00031157,0.00
 031564,-0.04508558,-0.04944272,0.07076148,0.00001663,0.00001569,-0.000
 00831,0.00004393,0.00008625,-0.00007502,-0.00016468,0.00101364,0.00028
 956,-0.00082734,-0.00049544,-0.00143642,-0.00058040,0.00024041,-0.0001
 3240,0.00013395,-0.00021587,0.00007948,-0.01135505,0.01364263,-0.00052
 343,0.00014319,-0.00073742,0.00011139,-0.00007388,0.00026044,0.0000286
 9,0.00231040,0.00031008,0.00132246,-0.00072918,-0.00042863,0.00021565,
 -0.00039926,0.00051325,-0.00129835,0.00014996,0.00004660,0.00004329,0.
 00050401,-0.00074144,0.00226207,0.00010205,-0.00022348,-0.00003611,-0.
 13065361,0.12142076,-0.02840167,0.00010296,0.00012081,-0.00008742,-0.0
 0017477,-0.00024624,0.00019899,0.00007974,0.00012527,-0.00011819,0.000
 10022,0.00004188,-0.00007452,-0.00002073,-0.00000327,0.00000950,0.0000
 0244,0.00001058,0.00000152,-0.00019255,0.00024519,-0.00017708,-0.00002
 397,-0.00000704,0.00022095,0.01325049,-0.01641606,0.00292936,0.1377722
 2,0.00006814,-0.00000936,-0.00005320,0.00017037,0.00020263,-0.00004470
 ,-0.00002674,0.00011764,-0.00001573,-0.00042981,-0.00017724,-0.0001471
 1,0.00009572,-0.00049090,-0.00007221,-0.00018670,-0.00014120,-0.000003
 51,0.00232839,-0.00347545,-0.00109786,-0.00073578,-0.00031256,0.000453
 31,-0.00005495,0.00021760,-0.00000977,0.00056631,0.00178189,0.00066548
 ,0.00000635,-0.00019098,0.00029240,0.00081434,-0.00076872,-0.00042856,
 0.00013397,0.00003082,-0.00003393,0.00015186,0.00088713,0.00012901,0.0
 0007949,-0.00020974,-0.00002910,0.12549300,-0.24125071,0.04541846,0.00
 008567,0.00006731,-0.00007595,-0.00024783,-0.00023689,0.00029523,0.000
 01817,0.00012656,-0.00008307,0.00003538,0.00004591,-0.00007653,-0.0000
 1067,0.00001014,0.00000915,-0.00002109,-0.00000245,-0.00002136,-0.0000
 0398,-0.00021030,-0.00019654,-0.00007774,0.00005969,-0.00029617,0.0133
 6893,-0.01577198,0.00443695,-0.13627638,0.25221954,0.00008095,-0.00002
 817,-0.00006051,0.00000201,0.00001319,-0.00006437,0.00012317,-0.002005
 63,0.00018965,-0.00008493,0.00022366,-0.00002767,-0.00018382,0.0000952
 8,-0.00001531,-0.00039514,0.00050484,-0.00006575,0.02116327,-0.0276421
 6,-0.00141643,-0.00058728,0.00053151,-0.00017258,0.00005125,0.00003229
 ,-0.00005721,0.00048263,0.00052414,-0.00148657,0.00083188,0.00043056,-
 0.00011713,0.00240716,-0.00300623,0.00103793,0.00003228,-0.00003452,-0
 .00011241,0.00089794,0.00238091,-0.00488006,0.00005250,0.00001433,0.00
 000631,-0.03693719,0.05498054,-0.06209386,-0.00000403,-0.00003089,0.00
 001483,-0.00015855,0.00002195,0.00016868,-0.00010563,-0.00000671,0.000
 09092,-0.00007058,0.00000663,0.00000307,-0.00000509,0.00001367,-0.0000
 0648,-0.00001540,-0.00000950,-0.00002202,0.00047470,-0.00083205,0.0002
 7865,0.00003869,-0.00042033,0.00021898,-0.00497094,0.00422129,-0.00058
 301,0.02782630,-0.04832259,0.06941170,-0.00001404,-0.00000735,0.000018
 35,-0.00012916,-0.00011701,0.00001710,-0.00011260,0.00021380,0.0001178
 5,-0.00015728,-0.00027665,-0.00005954,0.00001067,-0.00015254,0.0000165
 5,0.00083602,0.00020965,0.00062258,0.01185001,0.00562329,0.02246494,0.
 00152448,-0.00055604,0.00033075,0.00009519,-0.00016902,-0.00006602,-0.
 00029478,0.00049950,0.00022675,-0.00023394,-0.00024209,0.00016322,-0.0
 0401762,0.00132118,0.00186824,-0.00012775,0.00006319,-0.00028034,0.001
 47318,0.00039603,0.00084085,0.00004431,0.00024460,0.00010938,-0.179575
 70,-0.03663687,-0.14322048,-0.00007969,-0.00010925,0.00009393,0.000147
 51,0.00020656,-0.00017183,-0.00001654,0.00007089,-0.00009220,-0.000005
 04,0.00002781,-0.00005479,0.00003905,0.00001538,0.00000745,-0.00000083
 ,-0.00002462,-0.00001741,-0.00008691,-0.00024223,0.00015644,0.00009922
 ,0.00025588,0.00027494,-0.00948510,-0.00034082,-0.01286195,-0.00905975
 ,-0.00517301,-0.01077830,0.18600722,0.00000019,0.00000438,-0.00000006,
 -0.00000228,-0.00003597,-0.00003778,0.00043128,0.00031195,0.00083878,-
 0.00030453,-0.00017799,-0.00034726,-0.00015701,0.00000014,-0.00008775,
 0.00028916,-0.00011143,-0.00014052,-0.00299398,-0.00195905,-0.00726587
 ,-0.00071643,-0.00012412,0.00025186,-0.00001891,0.00003947,0.00000986,
 0.00072712,0.00064739,-0.00006849,-0.00062501,0.00029321,-0.00022811,0
 .00120117,-0.00051720,-0.00047464,-0.00002489,-0.00001292,0.00015461,-
 0.00065770,-0.00022319,-0.00206051,0.00000420,-0.00001972,-0.00002712,
 -0.03388897,-0.05946447,-0.03485976,0.00002697,0.00004922,-0.00000926,
 -0.00001566,-0.00002886,0.00003910,-0.00003427,0.00014912,0.00005738,0
 .00005632,0.00000231,-0.00000916,-0.00000381,-0.00000208,-0.00000702,0
 .00000490,0.00000550,-0.00000093,-0.00001725,-0.00001533,0.00009737,0.
 00041685,-0.00124966,-0.00024839,-0.01490265,-0.00278731,-0.01835542,0
 .01645397,0.00745238,0.01971594,0.03456576,0.05776555,-0.00001368,0.00
 001627,0.00000741,0.00005392,0.00006962,-0.00000137,0.00022323,-0.0000
 3524,0.00056463,0.00057743,0.00031331,0.00050096,0.00020719,0.00014383
 ,0.00010210,-0.00053924,0.00006592,-0.00048316,-0.01400057,-0.00681221
 ,-0.02677058,-0.00108637,0.00026310,-0.00019338,-0.00006873,0.00009959
 ,0.00006896,-0.00059504,-0.00100358,-0.00045306,-0.00023454,0.00035584
 ,-0.00029852,0.00493248,-0.00063339,-0.00183118,0.00003959,-0.00002559
 ,0.00032136,-0.00112892,0.00110502,-0.00074530,-0.00005760,-0.00021402
 ,-0.00009166,-0.13161271,-0.03573450,-0.19165684,0.00005562,0.00009662
 ,-0.00008045,-0.00006055,-0.00012903,0.00006071,0.00005060,-0.00013072
 ,0.00004422,0.00002770,-0.00003233,0.00005403,-0.00002643,-0.00001619,
 -0.00001122,0.00001498,0.00002021,0.00002359,0.00008102,-0.00011842,-0
 .00002392,0.00027417,-0.00053876,0.00069548,0.00573016,0.00155693,0.00
 894408,-0.00308255,-0.00076033,-0.00173866,0.14101441,0.04215511,0.213
 17789,-0.00030396,0.00099803,0.00063501,0.00150683,-0.00312027,0.00280
 981,0.00012860,0.00018235,0.00005236,0.00000129,0.00004339,-0.00002485
 ,-0.00003584,0.00007936,-0.00002528,-0.00011540,0.00000486,0.00007312,
 0.00000695,0.00006616,-0.00000267,-0.00006698,0.00021510,-0.00002994,-
 0.00870530,0.02656980,0.00791734,0.00001513,-0.00016133,0.00004390,-0.
 00010198,-0.00027642,0.00001139,-0.00001952,-0.00028634,0.00002851,-0.
 00012193,0.00009239,-0.00241800,0.00001983,-0.00011931,-0.00007753,0.0
 0748030,-0.01430739,-0.00317064,0.00000169,-0.00001256,-0.00002623,-0.
 06137381,0.05324768,0.02327730,-0.00309339,0.00147081,0.00377173,-0.00
 000511,-0.00000629,-0.00005980,-0.00012059,-0.00001272,0.00005219,-0.0
 0012002,0.00025933,0.00032773,0.00016410,0.00028580,0.00013418,-0.0000
 0109,0.00001796,0.00000857,-0.00001154,0.00000547,0.00000644,0.0000082
 2,-0.00000766,0.00000148,0.00000633,0.00000675,0.00000292,-0.00000423,
 -0.00000220,-0.00000046,0.06487167,-0.00010008,0.00013427,0.00000108,-
 0.00155772,-0.00109216,-0.00007101,0.00015274,0.00015028,0.00008900,0.
 00004128,0.00005751,0.00001307,-0.00004488,0.00012307,-0.00003051,0.00
 012783,0.00043899,0.00008062,0.00002540,0.00009544,0.00002756,-0.00007
 226,0.00040375,-0.00003826,0.00190256,0.00113506,-0.00094104,-0.000020
 91,-0.00028870,-0.00000345,-0.00017077,-0.00018539,-0.00006272,0.00003
 286,-0.00055540,0.00010396,0.00055813,0.00023762,-0.00017370,0.0000037
 6,-0.00010067,-0.00009230,0.00638927,-0.01495976,-0.00645724,0.0000324
 5,-0.00001980,-0.00004919,0.05928504,-0.31431318,-0.07012733,-0.000498
 27,0.00151162,0.00010151,-0.00002652,-0.00001114,-0.00005060,-0.000075
 19,0.00007406,0.00005933,-0.00083555,0.00015111,0.00053836,0.00003088,
 0.00013311,0.00012804,-0.00000204,0.00001687,0.00000887,-0.00000978,0.
 00000375,0.00000878,0.00001492,-0.00001282,-0.00000114,0.00001643,0.00
 001004,-0.00000117,-0.00000887,0.00000179,0.00000394,-0.06518762,0.326
 88808,0.00048209,-0.00060488,0.00016116,0.00296269,0.00130973,0.004627
 24,0.00008538,0.00018095,-0.00006309,-0.00004350,0.00002253,-0.0000571
 2,-0.00000594,-0.00000931,-0.00000534,-0.00049693,-0.00048317,-0.00003
 643,-0.00000216,0.00000548,-0.00006347,-0.00001811,-0.00007998,-0.0000
 0613,0.00496744,-0.01570872,-0.00591449,0.00005994,0.00004861,0.000084
 31,-0.00007790,-0.00028340,0.00022092,-0.00006491,0.00012583,-0.000082
 95,-0.00205945,0.00096555,-0.00179940,0.00002547,-0.00010769,-0.000025
 51,0.00024911,0.00813274,0.00578304,-0.00004831,-0.00000571,0.00001605
 ,0.02373197,-0.06886376,-0.05725238,0.00344561,-0.00129484,0.00050738,
 -0.00005398,-0.00005656,-0.00013234,-0.00007441,0.00000546,0.00010190,
 0.00020738,-0.00033534,-0.00000451,0.00009925,0.00017239,0.00010985,-0
 .00000147,0.00001530,0.00000568,-0.00001328,0.00000372,-0.00000069,0.0
 0000117,-0.00000645,0.00000173,-0.00000559,0.00000045,0.00000150,0.000
 00639,-0.00000551,-0.00000901,-0.03334342,0.07691075,0.05381178,0.0000
 7085,-0.00002549,-0.00004691,0.00002256,0.00003935,0.00000221,-0.00151
 472,0.00447214,0.00158515,-0.01077394,-0.00923058,0.00275885,-0.001213
 28,-0.00059452,-0.00193870,-0.00163752,0.00002588,-0.00227544,-0.11799
 817,-0.09191183,0.02729030,0.00082228,-0.00073456,0.00075248,0.0000755
 0,0.00002223,-0.00006763,-0.00378855,0.01127016,-0.00493648,-0.0016512
 0,-0.00006883,-0.00031587,-0.01671575,-0.02230316,-0.00178883,0.000506
 80,-0.00064409,-0.00049526,0.01532219,0.01409939,-0.00633328,0.0002166
 6,0.00006087,0.00010908,-0.00998520,-0.01200254,0.00796022,-0.00003129
 ,-0.00007260,0.00007098,-0.00015566,0.00002812,0.00010967,0.00010092,-
 0.00003075,0.00006412,0.00006252,-0.00002276,0.00002945,-0.00020980,0.
 00003228,-0.00017784,0.00000035,-0.00005617,-0.00005002,0.00009410,0.0
 0167350,0.00028090,-0.00223221,0.00210180,-0.00093024,-0.00048587,0.00
 149052,0.00213652,-0.00046334,-0.00017815,-0.00017078,0.00127411,0.000
 18764,-0.00077514,-0.00001024,-0.00000314,-0.00001453,0.15029790,0.000
 01724,-0.00001315,0.00001556,-0.00000159,0.00021804,-0.00005929,0.0027
 3329,0.00282804,0.00205633,-0.03002789,-0.00800702,-0.02193218,-0.0146
 9449,0.00151904,-0.00572900,0.00246964,-0.00571163,0.00457011,-0.08841
 872,-0.18727362,0.04309086,0.00273053,-0.01908050,0.00563267,0.0000023
 9,-0.00011967,0.00000748,0.04111677,0.02639393,0.01694018,-0.00327321,
 -0.00017071,-0.00163938,-0.02473343,0.00767112,-0.02488652,-0.00041796
 ,0.00040825,0.00046773,0.00057212,-0.01900185,0.00250262,-0.00004669,0
 .00003473,0.00000073,0.00391414,0.01341613,0.00304650,0.00005972,-0.00
 002630,0.00000092,0.00000152,0.00008777,0.00001310,0.00042459,-0.00057
 586,0.00034583,0.00023686,-0.00013990,0.00028733,0.00017169,-0.0000791
 0,0.00017296,0.00025848,0.00016556,0.00014068,-0.00000067,0.00212433,0
 .00002178,0.00006960,0.00028426,-0.00039399,0.00293562,-0.00112615,-0.
 00437671,0.00122740,0.00001921,-0.00137078,0.00034284,0.00000688,-0.00
 008099,-0.00004512,-0.00002739,-0.00005419,0.10237532,0.18617558,0.000
 01581,-0.00000083,-0.00002533,0.00002344,-0.00010461,0.00005444,-0.000
 43033,-0.00369668,-0.00170472,0.01499784,-0.00818537,0.00326484,0.0059
 9372,-0.00066461,0.00438088,-0.00544531,0.00374278,-0.00634347,0.02461
 244,0.03401343,-0.06612437,0.00053215,0.00963674,-0.00264550,0.0000183
 3,0.00010030,-0.00002519,-0.02285181,-0.00644354,-0.01302579,0.0018019
 9,0.00069629,0.00094671,-0.01215909,-0.03380990,0.01505587,0.00131823,
 -0.00123073,-0.00057375,-0.00429185,0.00572976,-0.00064583,0.00018052,
 0.00002305,0.00006103,0.01889595,0.02004163,-0.01185008,-0.00002704,-0
 .00003529,0.00003935,-0.00010814,-0.00004233,0.00006208,-0.00017540,0.
 00022691,-0.00018992,-0.00013077,0.00006861,-0.00012601,-0.00044704,0.
 00000602,-0.00034346,-0.00020319,-0.00013091,-0.00012760,0.00013276,-0
 .00060278,0.00087180,0.00005113,0.00033369,-0.00003367,0.00133319,-0.0
 0188736,-0.00314171,-0.00008211,0.00006776,0.00149778,-0.00074724,0.00
 091354,-0.00017710,0.00002483,0.00002480,0.00002032,-0.02283300,-0.018
 79035,0.08084842\\-0.00000366,-0.00000128,-0.00000181,-0.00000539,-0.0
 0000512,-0.00000055,-0.00000141,-0.00000136,-0.00000084,-0.00002497,-0
 .00001479,-0.00000847,-0.00000290,0.00000040,-0.00000319,-0.00000243,0
 .00000703,-0.00000171,-0.00000716,0.00000276,-0.00001703,-0.00000517,-
 0.00000494,-0.00000816,-0.00000443,-0.00000897,-0.00000375,0.00002583,
 0.00001968,0.00001888,0.00000333,-0.00000705,0.00000701,0.00001223,-0.
 00000948,0.00001481,-0.00000639,-0.00000130,-0.00000003,-0.00000207,0.
 00000360,0.00000817,0.00000310,0.00000423,0.00000044,-0.00000065,-0.00
 000135,0.00000677,0.00000369,-0.00000060,-0.00000556,0.00001400,0.0000
 0713,-0.00000659,-0.00000028,0.00000169,-0.00000149,0.00000320,0.00000
 170,-0.00000100,0.00000309,-0.00000190,0.00000227,0.00000207,-0.000000
 88,-0.00000146,0.00000028,0.00000134,0.00000205,-0.00000230,0.00000029
 ,-0.00000009,-0.00000200,0.00000125,0.00000001,-0.00000157,0.00000088,
 0.00000046,-0.00000158,0.00000201,0.00000057,-0.00000023,-0.00000143,-
 0.00000028,0.00000376,0.00000647,0.00000057\\\@


 A DANDELION FROM A LOVER MEANS MORE THAN AN ORCHID FROM A FRIEND.
 Job cpu time:       0 days  2 hours 30 minutes 22.4 seconds.
 Elapsed time:       0 days  0 hours 18 minutes 48.9 seconds.
 File lengths (MBytes):  RWF=    535 Int=      0 D2E=      0 Chk=     15 Scr=      1
 Normal termination of Gaussian 16 at Mon Jul 30 21:29:37 2018.
