 Entering Gaussian System, Link 0=g16
 Initial command:
 /opt/software/gaussian/g16.a03/l1.exe "/localscratch/cieritan.6774939.0/Gau-22381.inp" -scrdir="/localscratch/cieritan.6774939.0/"
 Entering Link 1 = /opt/software/gaussian/g16.a03/l1.exe PID=     22382.
  
 Copyright (c) 1988,1990,1992,1993,1995,1998,2003,2009,2016,
            Gaussian, Inc.  All Rights Reserved.
  
 This is part of the Gaussian(R) 16 program.  It is based on
 the Gaussian(R) 09 system (copyright 2009, Gaussian, Inc.),
 the Gaussian(R) 03 system (copyright 2003, Gaussian, Inc.),
 the Gaussian(R) 98 system (copyright 1998, Gaussian, Inc.),
 the Gaussian(R) 94 system (copyright 1995, Gaussian, Inc.),
 the Gaussian 92(TM) system (copyright 1992, Gaussian, Inc.),
 the Gaussian 90(TM) system (copyright 1990, Gaussian, Inc.),
 the Gaussian 88(TM) system (copyright 1988, Gaussian, Inc.),
 the Gaussian 86(TM) system (copyright 1986, Carnegie Mellon
 University), and the Gaussian 82(TM) system (copyright 1983,
 Carnegie Mellon University). Gaussian is a federally registered
 trademark of Gaussian, Inc.
  
 This software contains proprietary and confidential information,
 including trade secrets, belonging to Gaussian, Inc.
  
 This software is provided under written license and may be
 used, copied, transmitted, or stored only in accord with that
 written license.
  
 The following legend is applicable only to US Government
 contracts under FAR:
  
                    RESTRICTED RIGHTS LEGEND
  
 Use, reproduction and disclosure by the US Government is
 subject to restrictions as set forth in subparagraphs (a)
 and (c) of the Commercial Computer Software - Restricted
 Rights clause in FAR 52.227-19.
  
 Gaussian, Inc.
 340 Quinnipiac St., Bldg. 40, Wallingford CT 06492
  
  
 ---------------------------------------------------------------
 Warning -- This program may not be used in any manner that
 competes with the business of Gaussian, Inc. or will provide
 assistance to any competitor of Gaussian, Inc.  The licensee
 of this program is prohibited from giving any competitor of
 Gaussian, Inc. access to this program.  By using this program,
 the user acknowledges that Gaussian, Inc. is engaged in the
 business of creating and licensing software in the field of
 computational chemistry and represents and warrants to the
 licensee that it is not a competitor of Gaussian, Inc. and that
 it will not use this program in any manner prohibited above.
 ---------------------------------------------------------------
  

 Cite this work as:
 Gaussian 16, Revision A.03,
 M. J. Frisch, G. W. Trucks, H. B. Schlegel, G. E. Scuseria, 
 M. A. Robb, J. R. Cheeseman, G. Scalmani, V. Barone, 
 G. A. Petersson, H. Nakatsuji, X. Li, M. Caricato, A. V. Marenich, 
 J. Bloino, B. G. Janesko, R. Gomperts, B. Mennucci, H. P. Hratchian, 
 J. V. Ortiz, A. F. Izmaylov, J. L. Sonnenberg, D. Williams-Young, 
 F. Ding, F. Lipparini, F. Egidi, J. Goings, B. Peng, A. Petrone, 
 T. Henderson, D. Ranasinghe, V. G. Zakrzewski, J. Gao, N. Rega, 
 G. Zheng, W. Liang, M. Hada, M. Ehara, K. Toyota, R. Fukuda, 
 J. Hasegawa, M. Ishida, T. Nakajima, Y. Honda, O. Kitao, H. Nakai, 
 T. Vreven, K. Throssell, J. A. Montgomery, Jr., J. E. Peralta, 
 F. Ogliaro, M. J. Bearpark, J. J. Heyd, E. N. Brothers, K. N. Kudin, 
 V. N. Staroverov, T. A. Keith, R. Kobayashi, J. Normand, 
 K. Raghavachari, A. P. Rendell, J. C. Burant, S. S. Iyengar, 
 J. Tomasi, M. Cossi, J. M. Millam, M. Klene, C. Adamo, R. Cammi, 
 J. W. Ochterski, R. L. Martin, K. Morokuma, O. Farkas, 
 J. B. Foresman, and D. J. Fox, Gaussian, Inc., Wallingford CT, 2016.
 
 ******************************************
 Gaussian 16:  ES64L-G16RevA.03 25-Dec-2016
                30-Jul-2018 
 ******************************************
 %rwf=/scratch/cieritan/rwf/BENTHIAVALICARB_6.rwf
 %chk=/scratch/cieritan/chk/BENTHIAVALICARB_6.chk
 %mem=4000mb
 %nproc=8
 Will use up to    8 processors via shared memory.
 ----------------------------------------------------------------------
 # opt=maxcycles=150 freq b3lyp/6-31++g(d,p) empiricaldispersion=GD3 in
 t=ultrafine scf=xqc pop=(mk,dipole)
 ----------------------------------------------------------------------
 1/6=150,18=20,19=15,26=4,38=1/1,3;
 2/9=110,12=2,17=6,18=5,40=1/2;
 3/5=1,6=6,7=1111,11=2,25=1,30=1,71=1,74=-5,75=-5,124=31/1,2,3;
 4//1;
 5/5=2,8=3,13=1,38=5/2,8;
 6/7=2,8=2,9=2,10=2,15=24,20=1,28=1/1,2;
 7//1,2,3,16;
 1/6=150,18=20,19=15,26=4/3(2);
 2/9=110/2;
 99//99;
 2/9=110/2;
 3/5=1,6=6,7=1111,11=2,25=1,30=1,71=1,74=-5,75=-5,124=31/1,2,3;
 4/5=5,16=3,69=1/1;
 5/5=2,8=3,13=1,38=5/2,8;
 7//1,2,3,16;
 1/6=150,18=20,19=15,26=4/3(-5);
 2/9=110/2;
 6/7=2,8=2,9=2,10=2,15=24,19=2,20=1,28=1/1,2;
 99/9=1/99;
 --------------------------------
 Original File: BENTHIAVALICARB_6
 --------------------------------
 Symbolic Z-matrix:
 Charge =  1 Multiplicity = 1
 S                     2.45241  -1.9563   -0.72067 
 F                     6.75476   0.89015  -0.50749 
 O                    -0.9608    0.80502   1.05329 
 O                    -4.01568  -1.49298  -1.27605 
 O                    -5.66358  -1.68085   0.27968 
 N                    -1.29127  -0.98139  -0.33932 
 N                    -4.05971   0.00353   0.45758 
 N                     1.46957  -0.0152    0.6387 
 C                    -3.15922   2.31683   0.03418 
 C                    -3.03573   0.79157  -0.25806 
 C                    -0.23314  -1.85652   0.22249 
 C                    -1.68207   0.23325   0.24217 
 C                    -4.54771   2.82078  -0.35593 
 C                    -2.07562   3.07155  -0.73892 
 C                     1.12742  -1.19448   0.10448 
 C                    -0.48816  -2.22504   1.683 
 C                     3.523    -0.63638  -0.33568 
 C                     2.82496   0.34616   0.40999 
 C                    -4.70246  -1.08213  -0.13213 
 C                     4.86774  -0.48112  -0.66589 
 C                     3.46681   1.52571   0.84809 
 C                     5.47564   0.69308  -0.21966 
 C                     4.80326   1.69327   0.52683 
 H                    -2.99756   2.48364   1.13107 
 H                    -3.12041   0.63069  -1.37228 
 H                    -0.22954  -2.80071  -0.4026 
 H                    -5.35154   2.37211   0.23787 
 H                    -4.77938   2.63902  -1.41293 
 H                    -4.62536   3.90794  -0.20433 
 H                    -1.06749   2.78914  -0.41636 
 H                    -2.16477   4.15513  -0.56891 
 H                    -2.1499    2.92393  -1.82233 
 H                    -1.9636   -1.46499  -0.96301 
 H                    -4.52601   0.4472    1.25767 
 H                    -0.58554  -1.34441   2.33772 
 H                     0.30067  -2.86405   2.10294 
 H                    -1.43102  -2.78688   1.79341 
 H                     5.41879  -1.23241  -1.24041 
 H                     2.92301   2.28052   1.42351 
 H                     5.34545   2.59353   0.84615 
 H                    -4.50434  -2.24178  -1.72715 
 H                     0.77916   0.60455   1.15425 
 

 GradGradGradGradGradGradGradGradGradGradGradGradGradGradGradGradGradGrad
 Berny optimization.
 Initialization pass.
                           ----------------------------
                           !    Initial Parameters    !
                           ! (Angstroms and Degrees)  !
 --------------------------                            --------------------------
 ! Name  Definition              Value          Derivative Info.                !
 --------------------------------------------------------------------------------
 ! R1    R(1,15)                 1.7369         estimate D2E/DX2                !
 ! R2    R(1,17)                 1.7426         estimate D2E/DX2                !
 ! R3    R(2,22)                 1.3258         estimate D2E/DX2                !
 ! R4    R(3,12)                 1.2268         estimate D2E/DX2                !
 ! R5    R(4,19)                 1.3961         estimate D2E/DX2                !
 ! R6    R(4,41)                 1.0015         estimate D2E/DX2                !
 ! R7    R(5,19)                 1.2049         estimate D2E/DX2                !
 ! R8    R(6,11)                 1.4836         estimate D2E/DX2                !
 ! R9    R(6,12)                 1.4022         estimate D2E/DX2                !
 ! R10   R(6,33)                 1.0368         estimate D2E/DX2                !
 ! R11   R(7,10)                 1.477          estimate D2E/DX2                !
 ! R12   R(7,19)                 1.3927         estimate D2E/DX2                !
 ! R13   R(7,34)                 1.0269         estimate D2E/DX2                !
 ! R14   R(8,15)                 1.3391         estimate D2E/DX2                !
 ! R15   R(8,18)                 1.4213         estimate D2E/DX2                !
 ! R16   R(8,42)                 1.0614         estimate D2E/DX2                !
 ! R17   R(9,10)                 1.5579         estimate D2E/DX2                !
 ! R18   R(9,13)                 1.5278         estimate D2E/DX2                !
 ! R19   R(9,14)                 1.5302         estimate D2E/DX2                !
 ! R20   R(9,24)                 1.1212         estimate D2E/DX2                !
 ! R21   R(10,12)                1.5474         estimate D2E/DX2                !
 ! R22   R(10,25)                1.129          estimate D2E/DX2                !
 ! R23   R(11,15)                1.5177         estimate D2E/DX2                !
 ! R24   R(11,16)                1.5277         estimate D2E/DX2                !
 ! R25   R(11,26)                1.1324         estimate D2E/DX2                !
 ! R26   R(13,27)                1.0955         estimate D2E/DX2                !
 ! R27   R(13,28)                1.0972         estimate D2E/DX2                !
 ! R28   R(13,29)                1.1004         estimate D2E/DX2                !
 ! R29   R(14,30)                1.0955         estimate D2E/DX2                !
 ! R30   R(14,31)                1.1005         estimate D2E/DX2                !
 ! R31   R(14,32)                1.0959         estimate D2E/DX2                !
 ! R32   R(16,35)                1.1017         estimate D2E/DX2                !
 ! R33   R(16,36)                1.0986         estimate D2E/DX2                !
 ! R34   R(16,37)                1.1031         estimate D2E/DX2                !
 ! R35   R(17,18)                1.4173         estimate D2E/DX2                !
 ! R36   R(17,20)                1.3934         estimate D2E/DX2                !
 ! R37   R(18,21)                1.4125         estimate D2E/DX2                !
 ! R38   R(20,22)                1.3955         estimate D2E/DX2                !
 ! R39   R(20,38)                1.0946         estimate D2E/DX2                !
 ! R40   R(21,23)                1.3847         estimate D2E/DX2                !
 ! R41   R(21,39)                1.0939         estimate D2E/DX2                !
 ! R42   R(22,23)                1.4176         estimate D2E/DX2                !
 ! R43   R(23,40)                1.0984         estimate D2E/DX2                !
 ! A1    A(15,1,17)             91.8045         estimate D2E/DX2                !
 ! A2    A(19,4,41)            110.4313         estimate D2E/DX2                !
 ! A3    A(11,6,12)            123.5518         estimate D2E/DX2                !
 ! A4    A(11,6,33)            114.53           estimate D2E/DX2                !
 ! A5    A(12,6,33)            118.2154         estimate D2E/DX2                !
 ! A6    A(10,7,19)            122.0528         estimate D2E/DX2                !
 ! A7    A(10,7,34)            117.5039         estimate D2E/DX2                !
 ! A8    A(19,7,34)            117.2045         estimate D2E/DX2                !
 ! A9    A(15,8,18)            113.7896         estimate D2E/DX2                !
 ! A10   A(15,8,42)            122.8059         estimate D2E/DX2                !
 ! A11   A(18,8,42)            123.3696         estimate D2E/DX2                !
 ! A12   A(10,9,13)            110.3093         estimate D2E/DX2                !
 ! A13   A(10,9,14)            109.3888         estimate D2E/DX2                !
 ! A14   A(10,9,24)            108.5261         estimate D2E/DX2                !
 ! A15   A(13,9,14)            110.6031         estimate D2E/DX2                !
 ! A16   A(13,9,24)            109.3766         estimate D2E/DX2                !
 ! A17   A(14,9,24)            108.5898         estimate D2E/DX2                !
 ! A18   A(7,10,9)             112.1174         estimate D2E/DX2                !
 ! A19   A(7,10,12)            104.9125         estimate D2E/DX2                !
 ! A20   A(7,10,25)            110.4968         estimate D2E/DX2                !
 ! A21   A(9,10,12)            111.2205         estimate D2E/DX2                !
 ! A22   A(9,10,25)            108.5841         estimate D2E/DX2                !
 ! A23   A(12,10,25)           109.467          estimate D2E/DX2                !
 ! A24   A(6,11,15)            110.6476         estimate D2E/DX2                !
 ! A25   A(6,11,16)            112.659          estimate D2E/DX2                !
 ! A26   A(6,11,26)            106.5633         estimate D2E/DX2                !
 ! A27   A(15,11,16)           109.2208         estimate D2E/DX2                !
 ! A28   A(15,11,26)           108.5395         estimate D2E/DX2                !
 ! A29   A(16,11,26)           109.0945         estimate D2E/DX2                !
 ! A30   A(3,12,6)             120.9336         estimate D2E/DX2                !
 ! A31   A(3,12,10)            124.0489         estimate D2E/DX2                !
 ! A32   A(6,12,10)            114.9797         estimate D2E/DX2                !
 ! A33   A(9,13,27)            113.1647         estimate D2E/DX2                !
 ! A34   A(9,13,28)            112.534          estimate D2E/DX2                !
 ! A35   A(9,13,29)            110.7834         estimate D2E/DX2                !
 ! A36   A(27,13,28)           107.4213         estimate D2E/DX2                !
 ! A37   A(27,13,29)           106.1513         estimate D2E/DX2                !
 ! A38   A(28,13,29)           106.3481         estimate D2E/DX2                !
 ! A39   A(9,14,30)            112.0715         estimate D2E/DX2                !
 ! A40   A(9,14,31)            110.5014         estimate D2E/DX2                !
 ! A41   A(9,14,32)            112.6454         estimate D2E/DX2                !
 ! A42   A(30,14,31)           106.4332         estimate D2E/DX2                !
 ! A43   A(30,14,32)           108.5858         estimate D2E/DX2                !
 ! A44   A(31,14,32)           106.2522         estimate D2E/DX2                !
 ! A45   A(1,15,8)             112.3876         estimate D2E/DX2                !
 ! A46   A(1,15,11)            121.9703         estimate D2E/DX2                !
 ! A47   A(8,15,11)            125.6056         estimate D2E/DX2                !
 ! A48   A(11,16,35)           112.9597         estimate D2E/DX2                !
 ! A49   A(11,16,36)           112.6982         estimate D2E/DX2                !
 ! A50   A(11,16,37)           111.1756         estimate D2E/DX2                !
 ! A51   A(35,16,36)           107.5333         estimate D2E/DX2                !
 ! A52   A(35,16,37)           105.7898         estimate D2E/DX2                !
 ! A53   A(36,16,37)           106.2128         estimate D2E/DX2                !
 ! A54   A(1,17,18)            109.8014         estimate D2E/DX2                !
 ! A55   A(1,17,20)            128.6805         estimate D2E/DX2                !
 ! A56   A(18,17,20)           121.5181         estimate D2E/DX2                !
 ! A57   A(8,18,17)            112.2161         estimate D2E/DX2                !
 ! A58   A(8,18,21)            126.5653         estimate D2E/DX2                !
 ! A59   A(17,18,21)           121.2184         estimate D2E/DX2                !
 ! A60   A(4,19,5)             121.7499         estimate D2E/DX2                !
 ! A61   A(4,19,7)             110.4469         estimate D2E/DX2                !
 ! A62   A(5,19,7)             127.6458         estimate D2E/DX2                !
 ! A63   A(17,20,22)           116.0017         estimate D2E/DX2                !
 ! A64   A(17,20,38)           122.2598         estimate D2E/DX2                !
 ! A65   A(22,20,38)           121.7385         estimate D2E/DX2                !
 ! A66   A(18,21,23)           117.882          estimate D2E/DX2                !
 ! A67   A(18,21,39)           120.8962         estimate D2E/DX2                !
 ! A68   A(23,21,39)           121.2218         estimate D2E/DX2                !
 ! A69   A(2,22,20)            118.4192         estimate D2E/DX2                !
 ! A70   A(2,22,23)            117.8422         estimate D2E/DX2                !
 ! A71   A(20,22,23)           123.7386         estimate D2E/DX2                !
 ! A72   A(21,23,22)           119.6413         estimate D2E/DX2                !
 ! A73   A(21,23,40)           120.5424         estimate D2E/DX2                !
 ! A74   A(22,23,40)           119.8164         estimate D2E/DX2                !
 ! D1    D(17,1,15,8)            0.0157         estimate D2E/DX2                !
 ! D2    D(17,1,15,11)        -177.9046         estimate D2E/DX2                !
 ! D3    D(15,1,17,18)          -0.1765         estimate D2E/DX2                !
 ! D4    D(15,1,17,20)         179.8776         estimate D2E/DX2                !
 ! D5    D(41,4,19,5)            7.253          estimate D2E/DX2                !
 ! D6    D(41,4,19,7)         -176.9788         estimate D2E/DX2                !
 ! D7    D(12,6,11,15)         -68.1166         estimate D2E/DX2                !
 ! D8    D(12,6,11,16)          54.4681         estimate D2E/DX2                !
 ! D9    D(12,6,11,26)         174.0717         estimate D2E/DX2                !
 ! D10   D(33,6,11,15)         134.0269         estimate D2E/DX2                !
 ! D11   D(33,6,11,16)        -103.3884         estimate D2E/DX2                !
 ! D12   D(33,6,11,26)          16.2152         estimate D2E/DX2                !
 ! D13   D(11,6,12,3)           18.2547         estimate D2E/DX2                !
 ! D14   D(11,6,12,10)        -163.8934         estimate D2E/DX2                !
 ! D15   D(33,6,12,3)          175.3532         estimate D2E/DX2                !
 ! D16   D(33,6,12,10)          -6.7948         estimate D2E/DX2                !
 ! D17   D(19,7,10,9)          140.5431         estimate D2E/DX2                !
 ! D18   D(19,7,10,12)         -98.6225         estimate D2E/DX2                !
 ! D19   D(19,7,10,25)          19.2654         estimate D2E/DX2                !
 ! D20   D(34,7,10,9)          -18.5453         estimate D2E/DX2                !
 ! D21   D(34,7,10,12)         102.2891         estimate D2E/DX2                !
 ! D22   D(34,7,10,25)        -139.823          estimate D2E/DX2                !
 ! D23   D(10,7,19,4)           15.1889         estimate D2E/DX2                !
 ! D24   D(10,7,19,5)         -169.3564         estimate D2E/DX2                !
 ! D25   D(34,7,19,4)          174.3364         estimate D2E/DX2                !
 ! D26   D(34,7,19,5)          -10.209          estimate D2E/DX2                !
 ! D27   D(18,8,15,1)            0.1537         estimate D2E/DX2                !
 ! D28   D(18,8,15,11)         177.9837         estimate D2E/DX2                !
 ! D29   D(42,8,15,1)          178.0721         estimate D2E/DX2                !
 ! D30   D(42,8,15,11)          -4.0978         estimate D2E/DX2                !
 ! D31   D(15,8,18,17)          -0.2926         estimate D2E/DX2                !
 ! D32   D(15,8,18,21)         179.9047         estimate D2E/DX2                !
 ! D33   D(42,8,18,17)        -178.1976         estimate D2E/DX2                !
 ! D34   D(42,8,18,21)           1.9997         estimate D2E/DX2                !
 ! D35   D(13,9,10,7)          -57.9507         estimate D2E/DX2                !
 ! D36   D(13,9,10,12)        -175.0667         estimate D2E/DX2                !
 ! D37   D(13,9,10,25)          64.4209         estimate D2E/DX2                !
 ! D38   D(14,9,10,7)         -179.8231         estimate D2E/DX2                !
 ! D39   D(14,9,10,12)          63.0609         estimate D2E/DX2                !
 ! D40   D(14,9,10,25)         -57.4515         estimate D2E/DX2                !
 ! D41   D(24,9,10,7)           61.8591         estimate D2E/DX2                !
 ! D42   D(24,9,10,12)         -55.2569         estimate D2E/DX2                !
 ! D43   D(24,9,10,25)        -175.7693         estimate D2E/DX2                !
 ! D44   D(10,9,13,27)          64.0219         estimate D2E/DX2                !
 ! D45   D(10,9,13,28)         -57.99           estimate D2E/DX2                !
 ! D46   D(10,9,13,29)        -176.8989         estimate D2E/DX2                !
 ! D47   D(14,9,13,27)        -174.8265         estimate D2E/DX2                !
 ! D48   D(14,9,13,28)          63.1616         estimate D2E/DX2                !
 ! D49   D(14,9,13,29)         -55.7473         estimate D2E/DX2                !
 ! D50   D(24,9,13,27)         -55.2728         estimate D2E/DX2                !
 ! D51   D(24,9,13,28)        -177.2847         estimate D2E/DX2                !
 ! D52   D(24,9,13,29)          63.8064         estimate D2E/DX2                !
 ! D53   D(10,9,14,30)         -63.1481         estimate D2E/DX2                !
 ! D54   D(10,9,14,31)         178.3282         estimate D2E/DX2                !
 ! D55   D(10,9,14,32)          59.6596         estimate D2E/DX2                !
 ! D56   D(13,9,14,30)         175.1565         estimate D2E/DX2                !
 ! D57   D(13,9,14,31)          56.6327         estimate D2E/DX2                !
 ! D58   D(13,9,14,32)         -62.0358         estimate D2E/DX2                !
 ! D59   D(24,9,14,30)          55.13           estimate D2E/DX2                !
 ! D60   D(24,9,14,31)         -63.3938         estimate D2E/DX2                !
 ! D61   D(24,9,14,32)         177.9377         estimate D2E/DX2                !
 ! D62   D(7,10,12,3)         -103.8615         estimate D2E/DX2                !
 ! D63   D(7,10,12,6)           78.3623         estimate D2E/DX2                !
 ! D64   D(9,10,12,3)           17.563          estimate D2E/DX2                !
 ! D65   D(9,10,12,6)         -160.2132         estimate D2E/DX2                !
 ! D66   D(25,10,12,3)         137.5534         estimate D2E/DX2                !
 ! D67   D(25,10,12,6)         -40.2228         estimate D2E/DX2                !
 ! D68   D(6,11,15,1)         -123.3307         estimate D2E/DX2                !
 ! D69   D(6,11,15,8)           59.0346         estimate D2E/DX2                !
 ! D70   D(16,11,15,1)         112.1021         estimate D2E/DX2                !
 ! D71   D(16,11,15,8)         -65.5326         estimate D2E/DX2                !
 ! D72   D(26,11,15,1)          -6.7352         estimate D2E/DX2                !
 ! D73   D(26,11,15,8)         175.6301         estimate D2E/DX2                !
 ! D74   D(6,11,16,35)         -57.2404         estimate D2E/DX2                !
 ! D75   D(6,11,16,36)        -179.3706         estimate D2E/DX2                !
 ! D76   D(6,11,16,37)          61.5125         estimate D2E/DX2                !
 ! D77   D(15,11,16,35)         66.1417         estimate D2E/DX2                !
 ! D78   D(15,11,16,36)        -55.9885         estimate D2E/DX2                !
 ! D79   D(15,11,16,37)       -175.1054         estimate D2E/DX2                !
 ! D80   D(26,11,16,35)       -175.367          estimate D2E/DX2                !
 ! D81   D(26,11,16,36)         62.5029         estimate D2E/DX2                !
 ! D82   D(26,11,16,37)        -56.614          estimate D2E/DX2                !
 ! D83   D(1,17,18,8)            0.2917         estimate D2E/DX2                !
 ! D84   D(1,17,18,21)        -179.8936         estimate D2E/DX2                !
 ! D85   D(20,17,18,8)        -179.7578         estimate D2E/DX2                !
 ! D86   D(20,17,18,21)          0.0569         estimate D2E/DX2                !
 ! D87   D(1,17,20,22)         179.9074         estimate D2E/DX2                !
 ! D88   D(1,17,20,38)          -0.1109         estimate D2E/DX2                !
 ! D89   D(18,17,20,22)         -0.0329         estimate D2E/DX2                !
 ! D90   D(18,17,20,38)        179.9488         estimate D2E/DX2                !
 ! D91   D(8,18,21,23)         179.7409         estimate D2E/DX2                !
 ! D92   D(8,18,21,39)          -0.201          estimate D2E/DX2                !
 ! D93   D(17,18,21,23)         -0.0455         estimate D2E/DX2                !
 ! D94   D(17,18,21,39)       -179.9874         estimate D2E/DX2                !
 ! D95   D(17,20,22,2)        -179.9844         estimate D2E/DX2                !
 ! D96   D(17,20,22,23)          0.0007         estimate D2E/DX2                !
 ! D97   D(38,20,22,2)           0.0338         estimate D2E/DX2                !
 ! D98   D(38,20,22,23)       -179.9811         estimate D2E/DX2                !
 ! D99   D(18,21,23,22)          0.0137         estimate D2E/DX2                !
 ! D100  D(18,21,23,40)       -179.9455         estimate D2E/DX2                !
 ! D101  D(39,21,23,22)        179.9553         estimate D2E/DX2                !
 ! D102  D(39,21,23,40)         -0.0038         estimate D2E/DX2                !
 ! D103  D(2,22,23,21)         179.9939         estimate D2E/DX2                !
 ! D104  D(2,22,23,40)          -0.0466         estimate D2E/DX2                !
 ! D105  D(20,22,23,21)          0.0087         estimate D2E/DX2                !
 ! D106  D(20,22,23,40)        179.9682         estimate D2E/DX2                !
 --------------------------------------------------------------------------------
 Trust Radius=3.00D-01 FncErr=1.00D-07 GrdErr=1.00D-06 EigMax=2.50D+02 EigMin=1.00D-04
 Number of steps in this run=    150 maximum allowed number of steps=    252.
 GradGradGradGradGradGradGradGradGradGradGradGradGradGradGradGradGradGrad

                          Input orientation:                          
 ---------------------------------------------------------------------
 Center     Atomic      Atomic             Coordinates (Angstroms)
 Number     Number       Type             X           Y           Z
 ---------------------------------------------------------------------
      1         16           0        2.452409   -1.956299   -0.720666
      2          9           0        6.754756    0.890149   -0.507488
      3          8           0       -0.960798    0.805019    1.053286
      4          8           0       -4.015680   -1.492980   -1.276054
      5          8           0       -5.663577   -1.680847    0.279679
      6          7           0       -1.291268   -0.981394   -0.339322
      7          7           0       -4.059709    0.003530    0.457583
      8          7           0        1.469568   -0.015200    0.638697
      9          6           0       -3.159219    2.316834    0.034179
     10          6           0       -3.035730    0.791566   -0.258055
     11          6           0       -0.233138   -1.856520    0.222487
     12          6           0       -1.682065    0.233251    0.242174
     13          6           0       -4.547710    2.820779   -0.355934
     14          6           0       -2.075618    3.071546   -0.738921
     15          6           0        1.127415   -1.194477    0.104479
     16          6           0       -0.488162   -2.225040    1.683003
     17          6           0        3.522996   -0.636379   -0.335680
     18          6           0        2.824963    0.346155    0.409986
     19          6           0       -4.702457   -1.082125   -0.132131
     20          6           0        4.867739   -0.481117   -0.665886
     21          6           0        3.466805    1.525708    0.848088
     22          6           0        5.475644    0.693083   -0.219660
     23          6           0        4.803255    1.693265    0.526833
     24          1           0       -2.997558    2.483639    1.131068
     25          1           0       -3.120415    0.630694   -1.372280
     26          1           0       -0.229536   -2.800710   -0.402596
     27          1           0       -5.351537    2.372115    0.237866
     28          1           0       -4.779380    2.639016   -1.412926
     29          1           0       -4.625361    3.907943   -0.204332
     30          1           0       -1.067492    2.789137   -0.416361
     31          1           0       -2.164766    4.155130   -0.568905
     32          1           0       -2.149898    2.923932   -1.822325
     33          1           0       -1.963597   -1.464991   -0.963008
     34          1           0       -4.526014    0.447201    1.257672
     35          1           0       -0.585538   -1.344406    2.337718
     36          1           0        0.300666   -2.864053    2.102940
     37          1           0       -1.431018   -2.786881    1.793412
     38          1           0        5.418792   -1.232408   -1.240412
     39          1           0        2.923007    2.280521    1.423506
     40          1           0        5.345453    2.593526    0.846146
     41          1           0       -4.504339   -2.241782   -1.727154
     42          1           0        0.779157    0.604553    1.154249
 ---------------------------------------------------------------------
                    Distance matrix (angstroms):
                    1          2          3          4          5
     1  S    0.000000
     2  F    5.163129   0.000000
     3  O    4.735163   7.872295   0.000000
     4  O    6.508402  11.057680   4.476486   0.000000
     5  O    8.182041  12.706087   5.375326   2.274019   0.000000
     6  N    3.887284   8.262533   2.289069   2.926023   4.470960
     7  N    6.901948  10.893581   3.255840   2.290628   2.332631
     8  N    2.565484   5.483303   2.598331   5.994835   7.333828
     9  C    7.093647  10.030739   2.856084   4.118849   4.723720
    10  C    6.155034   9.794159   2.454616   2.686219   3.647953
    11  C    2.848097   7.543720   2.881580   4.084778   5.433581
    12  C    4.776512   8.495496   1.226804   3.275767   4.417875
    13  C    8.482639  11.467172   4.349152   4.442769   4.681218
    14  C    6.766283   9.098767   3.097091   4.988712   6.041211
    15  C    1.736907   6.032175   3.042836   5.333517   6.810640
    16  C    3.807467   8.183063   3.130685   4.662115   5.389841
    17  C    1.742573   3.578279   4.910322   7.645241   9.266213
    18  C    2.592000   4.071973   3.867348   7.281452   8.728174
    19  C    7.232058  11.631788   4.355059   1.396075   1.204910
    20  C    2.830721   2.338011   6.211404   8.961657  10.641525
    21  C    3.951501   3.612775   4.490564   8.343383   9.693759
    22  C    4.050948   1.325823   6.562066   9.796942  11.400313
    23  C    4.516863   2.350143   5.855804   9.548622  11.000013
    24  H    7.269395  10.016571   2.640494   4.758604   5.017516
    25  H    6.178471   9.916359   3.252338   2.306675   3.813117
    26  H    2.829669   7.900239   3.956718   4.099753   5.590026
    27  H    8.975273  12.219415   4.732789   4.360668   4.065171
    28  H    8.596215  11.701053   4.901767   4.204208   4.723127
    29  H    9.206018  11.777353   4.963745   5.539880   5.704974
    30  H    5.916204   8.049970   2.471431   5.269479   6.448971
    31  H    7.660999   9.498513   3.912069   5.985573   6.857142
    32  H    6.797907   9.228106   3.764690   4.825833   6.161846
    33  H    4.449856   9.042337   3.197498   2.076012   3.909056
    34  H    7.641271  11.426625   3.588951   3.231797   2.603672
    35  H    4.353992   8.183419   2.531919   4.984706   5.489553
    36  H    3.664255   7.909718   4.019347   5.650512   6.347949
    37  H    4.700155   9.263994   3.697383   4.216192   4.629174
    38  H    3.097351   2.612896   7.078936   9.438137  11.195118
    39  H    4.771748   4.510451   4.171104   8.346994   9.525240
    40  H    5.614758   2.592287   6.558236  10.432357  11.823278
    41  H    7.034974  11.750055   5.437879   1.001491   2.384504
    42  H    3.587902   6.208922   1.754373   5.770310   6.891788
                    6          7          8          9         10
     6  N    0.000000
     7  N    3.044569   0.000000
     8  N    3.084196   5.532274   0.000000
     9  C    3.808812   2.518239   5.218189   0.000000
    10  C    2.488602   1.477048   4.663984   1.557913   0.000000
    11  C    1.483615   4.261185   2.542223   5.100421   3.885589
    12  C    1.402221   2.398409   3.186181   2.562531   1.547370
    13  C    5.006117   2.972683   6.726047   1.527762   2.532463
    14  C    4.147434   3.844602   4.898385   1.530185   2.520190
    15  C    2.468277   5.335369   1.339086   5.541613   4.626832
    16  C    2.506279   4.384533   3.131561   5.521031   4.399741
    17  C    4.826612   7.650893   2.356234   7.315071   6.712819
    18  C    4.389443   6.893357   1.421261   6.311517   5.915437
    19  C    3.418960   1.392672   6.310816   3.736598   2.510887
    20  C    6.187915   9.010904   3.669684   8.529401   8.015664
    21  C    5.507700   7.688819   2.531244   6.722538   6.636677
    22  C    6.972036   9.584211   4.157774   8.789873   8.512030
    23  C    6.711724   9.022867   3.747644   8.002033   7.929615
    24  H    4.132787   2.780771   5.142163   1.121215   2.189573
    25  H    2.647944   2.150350   5.052638   2.196065   1.128959
    26  H    2.107413   4.824303   3.424954   5.912958   4.560709
    27  H    5.297637   2.706897   7.237915   2.202454   2.847286
    28  H    5.140712   3.310969   7.092487   2.196096   2.790540
    29  H    5.919461   4.000317   7.297253   2.176715   3.498802
    30  H    3.777951   4.180520   3.926083   2.191205   2.808792
    31  H    5.215322   4.677635   5.662008   2.175311   3.488376
    32  H    4.264753   4.168226   5.272159   2.198614   2.789018
    33  H    1.036763   2.927169   4.056350   4.089755   2.595858
    34  H    3.880059   1.026853   6.045159   2.619273   2.153361
    35  H    2.792199   4.173931   2.979416   5.033369   4.159790
    36  H    3.470346   5.472029   3.409736   6.564462   5.483556
    37  H    2.797833   4.059661   4.174803   5.668288   4.425935
    38  H    6.774945   9.708384   4.539715   9.370377   8.748739
    39  H    5.613178   7.407835   2.828205   6.238992   6.367981
    40  H    7.630954   9.762998   4.676641   8.547824   8.643526
    41  H    3.720011   3.164206   6.800183   5.068789   3.676447
    42  H    3.005435   4.925566   1.061393   4.438160   4.072216
                   11         12         13         14         15
    11  C    0.000000
    12  C    2.543014   0.000000
    13  C    6.389619   3.907039   0.000000
    14  C    5.348352   3.028754   2.514121   0.000000
    15  C    1.517673   3.154448   6.967159   5.400898   0.000000
    16  C    1.527727   3.089432   6.789513   6.036519   2.482718
    17  C    3.988588   5.308750   8.780014   6.727242   2.498804
    18  C    3.773449   4.511564   7.814519   5.723935   2.312693
    19  C    4.549753   3.315582   3.912377   4.951915   5.835753
    20  C    5.357227   6.650927   9.982448   7.799805   3.884890
    21  C    5.051774   5.343074   8.207273   5.968808   3.664029
    22  C    6.267867   7.187318  10.247599   7.933995   4.751320
    23  C    6.169186   6.653724   9.459974   7.128863   4.693531
    24  H    5.225372   2.754070   2.174353   2.166210   5.621194
    25  H    4.131087   2.198471   2.804746   2.729561   4.853465
    26  H    1.132359   3.424980   7.088719   6.164781   2.162967
    27  H    6.639247   4.247327   1.095461   3.489264   7.396972
    28  H    6.599450   4.256809   1.097242   2.819875   7.203361
    29  H    7.259672   4.729241   1.100426   2.736153   7.695745
    30  H    4.763024   2.709967   3.480886   1.095499   4.577999
    31  H    6.363759   4.033855   2.739393   1.100458   6.317452
    32  H    5.541475   3.423564   2.812551   1.095934   5.604877
    33  H    2.133819   2.101369   5.041230   4.543449   3.281320
    34  H    4.980715   3.027384   2.870203   4.108286   5.998852
    35  H    2.204688   2.843005   6.348491   5.584503   2.818518
    36  H    2.199130   4.121525   7.865757   6.996730   2.732187
    37  H    2.183642   3.404491   6.766041   6.414779   3.454537
    38  H    5.871448   7.400567  10.795452   8.656887   4.497342
    39  H    5.340300   5.176248   7.698695   5.503459   4.127904
    40  H    7.163277   7.437855   9.968516   7.603502   5.717594
    41  H    4.710911   4.239018   5.245155   5.925094   6.014015
    42  H    2.819539   2.650917   5.963876   4.221361   2.111826
                   16         17         18         19         20
    16  C    0.000000
    17  C    4.763225   0.000000
    18  C    4.382740   1.417265   0.000000
    19  C    4.728768   8.240036   7.680881   0.000000
    20  C    6.102804   1.393369   2.452512   9.603893   0.000000
    21  C    5.514250   2.465580   1.412530   8.631249   2.877860
    22  C    6.906703   2.365114   2.746438  10.332123   1.395497
    23  C    6.684978   2.794679   2.396247   9.924494   2.480862
    24  H    5.364080   7.375872   6.244241   4.149340   8.595448
    25  H    4.941531   6.842143   6.213289   2.640942   8.096031
    26  H    2.178992   4.332471   4.460158   4.799345   5.606429
    27  H    6.846508   9.388148   8.425514   3.534116  10.648535
    28  H    7.187376   8.989890   8.149003   3.936146  10.166622
    29  H    7.634915   9.330800   8.280764   4.991186  10.468803
    30  H    5.466710   5.728285   4.669284   5.317934   6.781135
    31  H    6.970557   7.440671   6.353260   5.836051   8.423795
    32  H    6.446751   6.860587   6.031367   5.041905   7.885362
    33  H    3.123453   5.584160   5.300535   2.887611   6.908215
    34  H    4.860661   8.276441   7.400381   2.074011   9.633506
    35  H    1.101658   4.952617   4.266810   4.808115   6.285311
    36  H    1.098606   4.614413   4.420815   5.762122   5.848328
    37  H    1.103101   5.805165   5.462889   4.161276   7.144161
    38  H    6.665117   2.183537   3.455955  10.182856   1.094613
    39  H    5.657163   3.458761   2.186003   8.477918   3.971673
    40  H    7.612488   3.892345   3.404964  10.743739   3.459463
    41  H    5.268693   8.303712   8.061231   1.981957   9.594898
    42  H    3.145199   3.359829   2.192263   5.877733   4.605222
                   21         22         23         24         25
    21  C    0.000000
    22  C    2.422557   0.000000
    23  C    1.384694   1.417647   0.000000
    24  H    6.541078   8.765028   7.863999   0.000000
    25  H    7.008748   8.673215   8.217070   3.116930   0.000000
    26  H    5.826237   6.692468   6.810920   6.159417   4.590425
    27  H    8.879861  10.966145  10.181559   2.520211   3.256228
    28  H    8.622715  10.506001   9.822627   3.109813   2.605221
    29  H    8.500928  10.600276   9.712785   2.541983   3.790689
    30  H    4.873903   6.873483   6.046174   2.492593   3.128442
    31  H    6.374662   8.395452   7.470926   2.525338   3.739027
    32  H    6.374440   8.105191   7.441735   3.104016   2.530491
    33  H    6.458608   7.781527   7.614755   4.587582   2.428503
    34  H    8.075648  10.113166   9.440448   2.549370   2.987646
    35  H    5.184403   6.886906   6.445606   4.682710   4.908228
    36  H    5.555996   6.695378   6.597467   6.357722   5.999517
    37  H    6.593992   7.991532   7.780880   5.538152   4.955349
    38  H    3.972315   2.180065   3.472982   9.500940   8.741087
    39  H    1.093876   3.425771   2.164307   5.931262   6.860124
    40  H    2.160916   2.182791   1.098367   8.348598   8.969116
    41  H    9.185042  10.511234  10.353567   5.724459   3.208161
    42  H    2.857571   4.894124   4.215722   4.218421   4.646579
                   26         27         28         29         30
    26  H    0.000000
    27  H    7.307750   0.000000
    28  H    7.163272   1.767403   0.000000
    29  H    8.023005   1.755460   1.759147   0.000000
    30  H    5.652322   4.353730   3.846270   3.735655   0.000000
    31  H    7.221945   3.739723   3.138022   2.499709   1.758754
    32  H    6.202818   3.846996   2.676371   3.116744   1.779468
    33  H    2.259463   5.257720   4.997393   6.043922   4.381716
    34  H    5.636057   2.329546   3.464151   3.758199   4.499825
    35  H    3.123600   6.398176   6.893714   7.097137   4.990332
    36  H    2.561803   7.927380   8.273569   8.686149   6.338556
    37  H    2.503238   6.663740   7.136700   7.682153   6.008929
    38  H    5.921581  11.453291  10.909647  11.330564   7.676182
    39  H    6.252366   8.359558   8.215877   7.891528   4.423560
    40  H    7.857330  10.716558  10.373896  10.111792   6.538964
    41  H    4.510077   5.085970   4.898630   6.336620   6.232194
    42  H    3.877763   6.445886   6.451880   6.478190   3.263332
                   31         32         33         34         35
    31  H    0.000000
    32  H    1.757023   0.000000
    33  H    5.637512   4.476134   0.000000
    34  H    4.760316   4.611562   3.892798   0.000000
    35  H    6.417734   6.162133   3.578880   4.461357   0.000000
    36  H    7.904811   7.410381   4.060086   5.914027   1.774769
    37  H    7.369562   6.797332   3.103044   4.508359   1.758363
    38  H    9.326674   8.654412   7.391259  10.390413   6.990532
    39  H    5.776616   6.056712   6.603273   7.673101   5.126965
    40  H    7.800280   7.963052   8.553760  10.110486   7.273840
    41  H    6.909097   5.677768   2.764542   4.017497   5.717121
    42  H    4.923671   4.776911   4.035900   5.308512   2.657336
                   36         37         38         39         40
    36  H    0.000000
    37  H    1.760822   0.000000
    38  H    6.327360   7.651168   0.000000
    39  H    5.814202   6.691258   5.066169   0.000000
    40  H    7.537544   8.704404   4.358540   2.509893   0.000000
    41  H    6.176157   4.704978   9.986205   9.248965  11.270336
    42  H    3.627698   4.098198   5.534893   2.734495   4.990190
                   41         42
    41  H    0.000000
    42  H    6.657284   0.000000
 Stoichiometry    C15H19FN3O3S(1+)
 Framework group  C1[X(C15H19FN3O3S)]
 Deg. of freedom   120
 Full point group                 C1      NOp   1
 Largest Abelian subgroup         C1      NOp   1
 Largest concise Abelian subgroup C1      NOp   1
                         Standard orientation:                         
 ---------------------------------------------------------------------
 Center     Atomic      Atomic             Coordinates (Angstroms)
 Number     Number       Type             X           Y           Z
 ---------------------------------------------------------------------
      1         16           0        2.452409   -1.956299   -0.720666
      2          9           0        6.754756    0.890149   -0.507488
      3          8           0       -0.960798    0.805019    1.053286
      4          8           0       -4.015680   -1.492980   -1.276054
      5          8           0       -5.663577   -1.680847    0.279679
      6          7           0       -1.291268   -0.981394   -0.339322
      7          7           0       -4.059709    0.003530    0.457583
      8          7           0        1.469568   -0.015200    0.638697
      9          6           0       -3.159219    2.316834    0.034179
     10          6           0       -3.035730    0.791566   -0.258055
     11          6           0       -0.233138   -1.856520    0.222487
     12          6           0       -1.682065    0.233251    0.242174
     13          6           0       -4.547710    2.820779   -0.355934
     14          6           0       -2.075618    3.071546   -0.738921
     15          6           0        1.127415   -1.194477    0.104479
     16          6           0       -0.488162   -2.225040    1.683003
     17          6           0        3.522996   -0.636379   -0.335680
     18          6           0        2.824963    0.346155    0.409986
     19          6           0       -4.702457   -1.082125   -0.132131
     20          6           0        4.867739   -0.481117   -0.665886
     21          6           0        3.466805    1.525708    0.848088
     22          6           0        5.475644    0.693083   -0.219660
     23          6           0        4.803255    1.693265    0.526833
     24          1           0       -2.997558    2.483639    1.131068
     25          1           0       -3.120415    0.630694   -1.372280
     26          1           0       -0.229536   -2.800710   -0.402596
     27          1           0       -5.351537    2.372115    0.237866
     28          1           0       -4.779380    2.639016   -1.412926
     29          1           0       -4.625361    3.907943   -0.204332
     30          1           0       -1.067492    2.789137   -0.416361
     31          1           0       -2.164766    4.155130   -0.568905
     32          1           0       -2.149898    2.923932   -1.822325
     33          1           0       -1.963597   -1.464991   -0.963008
     34          1           0       -4.526014    0.447201    1.257672
     35          1           0       -0.585538   -1.344406    2.337718
     36          1           0        0.300666   -2.864053    2.102940
     37          1           0       -1.431018   -2.786881    1.793412
     38          1           0        5.418792   -1.232408   -1.240412
     39          1           0        2.923007    2.280521    1.423506
     40          1           0        5.345453    2.593526    0.846146
     41          1           0       -4.504339   -2.241782   -1.727154
     42          1           0        0.779157    0.604553    1.154249
 ---------------------------------------------------------------------
 Rotational constants (GHZ):           0.4938619           0.1080031           0.0944521
 Standard basis: 6-31++G(d,p) (6D, 7F)
 There are   555 symmetry adapted cartesian basis functions of A   symmetry.
 There are   555 symmetry adapted basis functions of A   symmetry.
   555 basis functions,   912 primitive gaussians,   555 cartesian basis functions
    89 alpha electrons       89 beta electrons
       nuclear repulsion energy      2109.5650159690 Hartrees.
 NAtoms=   42 NActive=   42 NUniq=   42 SFac= 1.00D+00 NAtFMM=   60 NAOKFM=F Big=F
 Integral buffers will be    131072 words long.
 Raffenetti 2 integral format.
 Two-electron integral symmetry is turned on.
 Nuclear repulsion after empirical dispersion term =     2109.5173704562 Hartrees.
 One-electron integrals computed using PRISM.
 NBasis=   555 RedAO= T EigKep=  1.12D-06  NBF=   555
 NBsUse=   554 1.00D-06 EigRej=  5.62D-07 NBFU=   554
 ExpMin= 3.60D-02 ExpMax= 2.19D+04 ExpMxC= 3.30D+03 IAcc=3 IRadAn=         5 AccDes= 0.00D+00
 Harris functional with IExCor=  402 and IRadAn=       5 diagonalized for initial guess.
 HarFok:  IExCor=  402 AccDes= 0.00D+00 IRadAn=         5 IDoV= 1 UseB2=F ITyADJ=14
 ICtDFT=  3500011 ScaDFX=  1.000000  1.000000  1.000000  1.000000
 FoFCou: FMM=F IPFlag=           0 FMFlag=      100000 FMFlg1=           0
         NFxFlg=           0 DoJE=T BraDBF=F KetDBF=T FulRan=T
         wScrn=  0.000000 ICntrl=       500 IOpCl=  0 I1Cent=   200000004 NGrid=           0
         NMat0=    1 NMatS0=      1 NMatT0=    0 NMatD0=    1 NMtDS0=    0 NMtDT0=    0
 Petite list used in FoFCou.
 Requested convergence on RMS density matrix=1.00D-08 within  32 cycles.
 Requested convergence on MAX density matrix=1.00D-06.
 Requested convergence on             energy=1.00D-06.
 No special actions if energy rises.
 SCF Done:  E(RB3LYP) =  -1470.93649532     A.U. after   18 cycles
            NFock= 18  Conv=0.10D-08     -V/T= 2.0082
 QCSCF skips out because SCF is already converged.

 **********************************************************************

            Population analysis using the SCF density.

 **********************************************************************

 Orbital symmetries:
       Occupied  (A) (A) (A) (A) (A) (A) (A) (A) (A) (A) (A) (A)
                 (A) (A) (A) (A) (A) (A) (A) (A) (A) (A) (A) (A)
                 (A) (A) (A) (A) (A) (A) (A) (A) (A) (A) (A) (A)
                 (A) (A) (A) (A) (A) (A) (A) (A) (A) (A) (A) (A)
                 (A) (A) (A) (A) (A) (A) (A) (A) (A) (A) (A) (A)
                 (A) (A) (A) (A) (A) (A) (A) (A) (A) (A) (A) (A)
                 (A) (A) (A) (A) (A) (A) (A) (A) (A) (A) (A) (A)
                 (A) (A) (A) (A) (A)
       Virtual   (A) (A) (A) (A) (A) (A) (A) (A) (A) (A) (A) (A)
                 (A) (A) (A) (A) (A) (A) (A) (A) (A) (A) (A) (A)
                 (A) (A) (A) (A) (A) (A) (A) (A) (A) (A) (A) (A)
                 (A) (A) (A) (A) (A) (A) (A) (A) (A) (A) (A) (A)
                 (A) (A) (A) (A) (A) (A) (A) (A) (A) (A) (A) (A)
                 (A) (A) (A) (A) (A) (A) (A) (A) (A) (A) (A) (A)
                 (A) (A) (A) (A) (A) (A) (A) (A) (A) (A) (A) (A)
                 (A) (A) (A) (A) (A) (A) (A) (A) (A) (A) (A) (A)
                 (A) (A) (A) (A) (A) (A) (A) (A) (A) (A) (A) (A)
                 (A) (A) (A) (A) (A) (A) (A) (A) (A) (A) (A) (A)
                 (A) (A) (A) (A) (A) (A) (A) (A) (A) (A) (A) (A)
                 (A) (A) (A) (A) (A) (A) (A) (A) (A) (A) (A) (A)
                 (A) (A) (A) (A) (A) (A) (A) (A) (A) (A) (A) (A)
                 (A) (A) (A) (A) (A) (A) (A) (A) (A) (A) (A) (A)
                 (A) (A) (A) (A) (A) (A) (A) (A) (A) (A) (A) (A)
                 (A) (A) (A) (A) (A) (A) (A) (A) (A) (A) (A) (A)
                 (A) (A) (A) (A) (A) (A) (A) (A) (A) (A) (A) (A)
                 (A) (A) (A) (A) (A) (A) (A) (A) (A) (A) (A) (A)
                 (A) (A) (A) (A) (A) (A) (A) (A) (A) (A) (A) (A)
                 (A) (A) (A) (A) (A) (A) (A) (A) (A) (A) (A) (A)
                 (A) (A) (A) (A) (A) (A) (A) (A) (A) (A) (A) (A)
                 (A) (A) (A) (A) (A) (A) (A) (A) (A) (A) (A) (A)
                 (A) (A) (A) (A) (A) (A) (A) (A) (A) (A) (A) (A)
                 (A) (A) (A) (A) (A) (A) (A) (A) (A) (A) (A) (A)
                 (A) (A) (A) (A) (A) (A) (A) (A) (A) (A) (A) (A)
                 (A) (A) (A) (A) (A) (A) (A) (A) (A) (A) (A) (A)
                 (A) (A) (A) (A) (A) (A) (A) (A) (A) (A) (A) (A)
                 (A) (A) (A) (A) (A) (A) (A) (A) (A) (A) (A) (A)
                 (A) (A) (A) (A) (A) (A) (A) (A) (A) (A) (A) (A)
                 (A) (A) (A) (A) (A) (A) (A) (A) (A) (A) (A) (A)
                 (A) (A) (A) (A) (A) (A) (A) (A) (A) (A) (A) (A)
                 (A) (A) (A) (A) (A) (A) (A) (A) (A) (A) (A) (A)
                 (A) (A) (A) (A) (A) (A) (A) (A) (A) (A) (A) (A)
                 (A) (A) (A) (A) (A) (A) (A) (A) (A) (A) (A) (A)
                 (A) (A) (A) (A) (A) (A) (A) (A) (A) (A) (A) (A)
                 (A) (A) (A) (A) (A) (A) (A) (A) (A) (A) (A) (A)
                 (A) (A) (A) (A) (A) (A) (A) (A) (A) (A) (A) (A)
                 (A) (A) (A) (A) (A) (A) (A) (A) (A) (A) (A) (A)
                 (A) (A) (A) (A) (A) (A) (A) (A) (A)
 The electronic state is 1-A.
 Alpha  occ. eigenvalues --  -89.10235 -24.85591 -19.31901 -19.28163 -19.24521
 Alpha  occ. eigenvalues --  -14.58372 -14.51108 -14.49114 -10.46225 -10.45922
 Alpha  occ. eigenvalues --  -10.44293 -10.43093 -10.41779 -10.40821 -10.40058
 Alpha  occ. eigenvalues --  -10.36735 -10.36364 -10.35969 -10.35259 -10.32464
 Alpha  occ. eigenvalues --  -10.31206 -10.27944 -10.27636  -8.16061  -6.12504
 Alpha  occ. eigenvalues --   -6.12107  -6.11759  -1.37143  -1.21616  -1.19902
 Alpha  occ. eigenvalues --   -1.16961  -1.12774  -1.06984  -1.04811  -1.02420
 Alpha  occ. eigenvalues --   -0.99034  -0.93972  -0.91494  -0.90939  -0.88884
 Alpha  occ. eigenvalues --   -0.83335  -0.80907  -0.78986  -0.78876  -0.78125
 Alpha  occ. eigenvalues --   -0.76798  -0.75321  -0.72454  -0.70058  -0.69414
 Alpha  occ. eigenvalues --   -0.68268  -0.66622  -0.64779  -0.64628  -0.64199
 Alpha  occ. eigenvalues --   -0.62064  -0.61107  -0.60570  -0.60493  -0.59959
 Alpha  occ. eigenvalues --   -0.59341  -0.58838  -0.57867  -0.56764  -0.56446
 Alpha  occ. eigenvalues --   -0.56160  -0.55561  -0.54310  -0.53689  -0.53146
 Alpha  occ. eigenvalues --   -0.52858  -0.51861  -0.51275  -0.50302  -0.49852
 Alpha  occ. eigenvalues --   -0.49761  -0.49684  -0.48040  -0.47959  -0.45566
 Alpha  occ. eigenvalues --   -0.44632  -0.44469  -0.43831  -0.42437  -0.41069
 Alpha  occ. eigenvalues --   -0.40500  -0.39390  -0.39122  -0.37527
 Alpha virt. eigenvalues --   -0.22211  -0.17051  -0.16540  -0.15009  -0.14340
 Alpha virt. eigenvalues --   -0.12605  -0.10914  -0.10060  -0.09355  -0.08957
 Alpha virt. eigenvalues --   -0.08835  -0.08539  -0.07870  -0.07767  -0.07236
 Alpha virt. eigenvalues --   -0.06514  -0.06352  -0.06207  -0.05859  -0.05287
 Alpha virt. eigenvalues --   -0.04852  -0.04367  -0.04060  -0.03711  -0.03405
 Alpha virt. eigenvalues --   -0.03161  -0.02802  -0.02585  -0.02163  -0.01824
 Alpha virt. eigenvalues --   -0.01632  -0.01178  -0.00957  -0.00610  -0.00212
 Alpha virt. eigenvalues --   -0.00001   0.00166   0.00738   0.00775   0.01018
 Alpha virt. eigenvalues --    0.01418   0.01471   0.01676   0.02206   0.02506
 Alpha virt. eigenvalues --    0.02700   0.02833   0.02979   0.03288   0.03644
 Alpha virt. eigenvalues --    0.03800   0.03930   0.04202   0.04279   0.04611
 Alpha virt. eigenvalues --    0.04807   0.04976   0.05222   0.05461   0.05679
 Alpha virt. eigenvalues --    0.05815   0.06081   0.06306   0.06336   0.06815
 Alpha virt. eigenvalues --    0.07141   0.07172   0.07660   0.07703   0.07816
 Alpha virt. eigenvalues --    0.08355   0.08451   0.08994   0.09073   0.09186
 Alpha virt. eigenvalues --    0.09331   0.09878   0.09980   0.10277   0.10427
 Alpha virt. eigenvalues --    0.10515   0.10807   0.11084   0.11322   0.11524
 Alpha virt. eigenvalues --    0.11847   0.12340   0.12564   0.12989   0.13391
 Alpha virt. eigenvalues --    0.13487   0.13730   0.13996   0.14245   0.14783
 Alpha virt. eigenvalues --    0.15120   0.15410   0.15713   0.16003   0.16526
 Alpha virt. eigenvalues --    0.16994   0.17026   0.17087   0.17401   0.17736
 Alpha virt. eigenvalues --    0.18175   0.18393   0.18542   0.19044   0.19508
 Alpha virt. eigenvalues --    0.19782   0.20160   0.20326   0.20768   0.21371
 Alpha virt. eigenvalues --    0.21948   0.22179   0.22436   0.22533   0.23000
 Alpha virt. eigenvalues --    0.23506   0.23813   0.24324   0.24684   0.24974
 Alpha virt. eigenvalues --    0.25403   0.25934   0.26080   0.26333   0.26425
 Alpha virt. eigenvalues --    0.27144   0.27447   0.27692   0.28069   0.28501
 Alpha virt. eigenvalues --    0.28923   0.29659   0.29830   0.30167   0.30770
 Alpha virt. eigenvalues --    0.30918   0.31124   0.32232   0.32991   0.33303
 Alpha virt. eigenvalues --    0.33660   0.33799   0.34278   0.34825   0.35730
 Alpha virt. eigenvalues --    0.36418   0.37253   0.38519   0.38924   0.39415
 Alpha virt. eigenvalues --    0.39699   0.40671   0.41483   0.43187   0.44549
 Alpha virt. eigenvalues --    0.45249   0.48816   0.50320   0.52046   0.52871
 Alpha virt. eigenvalues --    0.54224   0.56039   0.56896   0.57265   0.58756
 Alpha virt. eigenvalues --    0.59203   0.59816   0.60381   0.61062   0.61641
 Alpha virt. eigenvalues --    0.63056   0.63630   0.64323   0.64734   0.64876
 Alpha virt. eigenvalues --    0.65540   0.66103   0.66568   0.67109   0.67721
 Alpha virt. eigenvalues --    0.68243   0.68941   0.70008   0.70825   0.71328
 Alpha virt. eigenvalues --    0.72266   0.74426   0.74901   0.75615   0.76988
 Alpha virt. eigenvalues --    0.77189   0.78097   0.78238   0.79284   0.80529
 Alpha virt. eigenvalues --    0.81403   0.82667   0.83370   0.84579   0.85174
 Alpha virt. eigenvalues --    0.86316   0.87076   0.87480   0.88219   0.88787
 Alpha virt. eigenvalues --    0.89287   0.91146   0.91821   0.93168   0.93471
 Alpha virt. eigenvalues --    0.93880   0.94344   0.94768   0.95272   0.96195
 Alpha virt. eigenvalues --    0.96400   0.96502   0.98003   0.98437   0.98681
 Alpha virt. eigenvalues --    0.99126   0.99666   1.00750   1.02919   1.03087
 Alpha virt. eigenvalues --    1.04162   1.05201   1.05917   1.06662   1.07681
 Alpha virt. eigenvalues --    1.08697   1.09017   1.09660   1.10133   1.11029
 Alpha virt. eigenvalues --    1.11654   1.12700   1.13577   1.14785   1.15807
 Alpha virt. eigenvalues --    1.17246   1.19011   1.19290   1.19734   1.21243
 Alpha virt. eigenvalues --    1.21724   1.22319   1.23022   1.23145   1.23740
 Alpha virt. eigenvalues --    1.25052   1.25149   1.25936   1.26714   1.27563
 Alpha virt. eigenvalues --    1.28223   1.29025   1.30201   1.30765   1.31414
 Alpha virt. eigenvalues --    1.31925   1.33887   1.35773   1.36807   1.37638
 Alpha virt. eigenvalues --    1.38048   1.38749   1.39848   1.42405   1.44508
 Alpha virt. eigenvalues --    1.46504   1.48624   1.48764   1.50266   1.51667
 Alpha virt. eigenvalues --    1.53417   1.54870   1.55672   1.56117   1.58261
 Alpha virt. eigenvalues --    1.59854   1.60470   1.61357   1.62117   1.63400
 Alpha virt. eigenvalues --    1.63697   1.64576   1.65111   1.66414   1.67720
 Alpha virt. eigenvalues --    1.68491   1.68675   1.68875   1.68924   1.70192
 Alpha virt. eigenvalues --    1.70802   1.71171   1.73247   1.74172   1.74516
 Alpha virt. eigenvalues --    1.75428   1.75580   1.76549   1.78046   1.78570
 Alpha virt. eigenvalues --    1.79195   1.79595   1.81515   1.82136   1.82323
 Alpha virt. eigenvalues --    1.82592   1.83776   1.85617   1.85907   1.86774
 Alpha virt. eigenvalues --    1.87810   1.88930   1.90808   1.92303   1.93154
 Alpha virt. eigenvalues --    1.93373   1.94184   1.96133   1.97283   1.97658
 Alpha virt. eigenvalues --    1.99474   1.99572   2.00832   2.01545   2.02639
 Alpha virt. eigenvalues --    2.02829   2.03439   2.04139   2.05678   2.06204
 Alpha virt. eigenvalues --    2.07666   2.08459   2.09741   2.10893   2.11283
 Alpha virt. eigenvalues --    2.12521   2.12667   2.12919   2.14575   2.15573
 Alpha virt. eigenvalues --    2.19155   2.19526   2.20889   2.22453   2.22966
 Alpha virt. eigenvalues --    2.24170   2.25552   2.26629   2.27210   2.28539
 Alpha virt. eigenvalues --    2.28986   2.29064   2.29763   2.32401   2.33655
 Alpha virt. eigenvalues --    2.34486   2.35730   2.36252   2.36536   2.37841
 Alpha virt. eigenvalues --    2.39386   2.41641   2.42040   2.42450   2.43864
 Alpha virt. eigenvalues --    2.44814   2.45755   2.46725   2.47435   2.49163
 Alpha virt. eigenvalues --    2.50005   2.50825   2.52230   2.53122   2.54408
 Alpha virt. eigenvalues --    2.54990   2.56890   2.57283   2.59255   2.60079
 Alpha virt. eigenvalues --    2.61297   2.61770   2.62131   2.62689   2.64662
 Alpha virt. eigenvalues --    2.65159   2.67082   2.67996   2.68229   2.69630
 Alpha virt. eigenvalues --    2.70870   2.73292   2.74247   2.75655   2.77778
 Alpha virt. eigenvalues --    2.78484   2.79525   2.80622   2.81278   2.83285
 Alpha virt. eigenvalues --    2.85993   2.86663   2.88168   2.93440   2.96656
 Alpha virt. eigenvalues --    2.97066   2.97951   3.04577   3.07621   3.09912
 Alpha virt. eigenvalues --    3.12042   3.12118   3.13380   3.15786   3.16671
 Alpha virt. eigenvalues --    3.17915   3.18512   3.23255   3.24523   3.33067
 Alpha virt. eigenvalues --    3.33519   3.35452   3.37236   3.37669   3.38314
 Alpha virt. eigenvalues --    3.39778   3.42282   3.43365   3.43990   3.44687
 Alpha virt. eigenvalues --    3.45092   3.61144   3.82164   4.13930   4.17100
 Alpha virt. eigenvalues --    4.18726   4.22051   4.24108   4.25886   4.28093
 Alpha virt. eigenvalues --    4.30463   4.34001   4.35585   4.37428   4.41456
 Alpha virt. eigenvalues --    4.44550   4.45055   4.49092   4.52169   4.59665
 Alpha virt. eigenvalues --    4.64981   4.68737   4.69840   4.79059   6.10010
          Condensed to atoms (all electrons):
               1          2          3          4          5          6
     1  S   16.370895  -0.006274   0.004415   0.001186  -0.000058  -0.078034
     2  F   -0.006274   9.305090  -0.000000  -0.000000  -0.000000  -0.000001
     3  O    0.004415  -0.000000   8.190327  -0.000221   0.000369  -0.156509
     4  O    0.001186  -0.000000  -0.000221   8.416267  -0.112555  -0.011298
     5  O   -0.000058  -0.000000   0.000369  -0.112555   8.184912  -0.008192
     6  N   -0.078034  -0.000001  -0.156509  -0.011298  -0.008192   7.893907
     7  N   -0.001276  -0.000000   0.027774  -0.216826  -0.100131   0.060388
     8  N   -0.211375  -0.000228   0.010095   0.000399   0.000036  -0.011975
     9  C   -0.003800  -0.000001   0.063068   0.008334   0.023952  -0.097956
    10  C    0.023369  -0.000002  -0.253024   0.084441   0.029431  -0.350912
    11  C   -0.240715   0.000867   0.162957  -0.036568   0.022029  -2.971709
    12  C   -0.066705  -0.000028   0.652896   0.075043   0.006776   0.475505
    13  C    0.000628   0.000000  -0.010390  -0.006888  -0.013056  -0.015976
    14  C    0.004786  -0.000002  -0.049175   0.006101   0.000913  -0.009182
    15  C   -0.172679   0.009817  -0.134651   0.009330  -0.005991   1.684933
    16  C   -0.213575   0.000032  -0.076258   0.006203  -0.006459   0.615101
    17  C    0.251396  -0.019682  -0.006914  -0.000464  -0.000011  -0.043313
    18  C   -0.961252   0.038077  -0.005649  -0.000270   0.000056  -0.009986
    19  C    0.000362   0.000000   0.006080   0.112857   0.414713  -0.038589
    20  C    0.403702  -0.207662  -0.012368  -0.000078   0.000000  -0.045315
    21  C    0.380018  -0.051406   0.011793   0.000092  -0.000005   0.059066
    22  C    0.081525   0.342986   0.002843   0.000015   0.000000   0.002363
    23  C   -0.100566  -0.107750  -0.000826  -0.000029  -0.000001  -0.006312
    24  H   -0.001291  -0.000000  -0.004587  -0.000195   0.001841   0.004962
    25  H   -0.002150  -0.000000   0.000397   0.005870   0.009014   0.033384
    26  H    0.018707   0.000008  -0.002077  -0.004007   0.001479  -0.149855
    27  H    0.000017   0.000000  -0.000340   0.000648  -0.001668  -0.002016
    28  H    0.000080   0.000000  -0.001600  -0.001733   0.000546  -0.002032
    29  H   -0.000021  -0.000000   0.001403   0.000112  -0.000337  -0.000277
    30  H   -0.000589   0.000018   0.007045   0.000533  -0.000220   0.013118
    31  H    0.000358   0.000000  -0.003414   0.000023   0.000008  -0.000660
    32  H   -0.000602  -0.000001   0.000714  -0.000463   0.000065   0.000027
    33  H   -0.007271  -0.000001   0.011399   0.011330  -0.002012   0.329391
    34  H    0.000395  -0.000000   0.000947   0.004143  -0.014179   0.002645
    35  H   -0.000841   0.000009   0.003501  -0.000711   0.000082  -0.032754
    36  H    0.007954   0.000002  -0.002223  -0.000615   0.000022   0.031331
    37  H   -0.009957   0.000000   0.000977   0.001544  -0.000304  -0.002817
    38  H   -0.029228  -0.012105  -0.000097  -0.000001   0.000000  -0.000162
    39  H    0.006494  -0.001600   0.000238  -0.000009  -0.000000   0.001347
    40  H    0.000074  -0.013561  -0.000134  -0.000000   0.000000  -0.000010
    41  H   -0.000220   0.000000   0.000215   0.205109  -0.008963   0.003138
    42  H    0.011510   0.000258   0.050667   0.001417   0.000172  -0.029607
               7          8          9         10         11         12
     1  S   -0.001276  -0.211375  -0.003800   0.023369  -0.240715  -0.066705
     2  F   -0.000000  -0.000228  -0.000001  -0.000002   0.000867  -0.000028
     3  O    0.027774   0.010095   0.063068  -0.253024   0.162957   0.652896
     4  O   -0.216826   0.000399   0.008334   0.084441  -0.036568   0.075043
     5  O   -0.100131   0.000036   0.023952   0.029431   0.022029   0.006776
     6  N    0.060388  -0.011975  -0.097956  -0.350912  -2.971709   0.475505
     7  N    7.361639   0.002072   0.458131  -1.690182  -0.113685   0.996938
     8  N    0.002072   7.094936   0.024495  -0.249321  -0.368287   0.266765
     9  C    0.458131   0.024495  11.320001  -8.082345  -0.070857   4.295711
    10  C   -1.690182  -0.249321  -8.082345  35.217933  -0.733210 -20.391297
    11  C   -0.113685  -0.368287  -0.070857  -0.733210  46.900787  -1.248308
    12  C    0.996938   0.266765   4.295711 -20.391297  -1.248308  21.654321
    13  C   -0.120597  -0.006326  -1.931131   2.693832   0.049812  -1.675027
    14  C    0.030009  -0.001057   0.114127  -0.590420   0.071327   0.373833
    15  C    0.034491  -0.073659  -0.043216   0.548778 -26.440517   0.341283
    16  C    0.047175   0.184917   0.069070  -0.433548  -5.336161   0.474293
    17  C   -0.002850   0.012194  -0.038484   0.236624  -3.184995  -0.100652
    18  C    0.000915   0.016159   0.007417   0.083844   0.827042   0.056082
    19  C    0.345255  -0.000274  -0.027610  -0.441262   0.298081   0.124571
    20  C   -0.000400  -0.180879  -0.006070   0.087400   0.867852  -0.029149
    21  C    0.002558   0.185722   0.033448  -0.272101  -2.953623   0.220482
    22  C    0.000049   0.056718   0.000869  -0.016202  -0.352242   0.005600
    23  C   -0.000228  -0.091328  -0.001772   0.035891   0.384426  -0.015705
    24  H   -0.021504   0.000298   0.301604   0.108097  -0.028560  -0.048145
    25  H   -0.132810  -0.002949  -0.246424   0.998826  -0.034298  -0.438293
    26  H   -0.005005   0.033395  -0.001416  -0.059245   1.003855   0.028566
    27  H    0.028469  -0.000018  -0.077445  -0.033937   0.010495  -0.001750
    28  H   -0.020471   0.000015  -0.136742   0.133587   0.002677  -0.053819
    29  H    0.001659  -0.000009  -0.176029   0.063354  -0.001178  -0.030291
    30  H   -0.001956   0.006679  -0.191271   0.051777  -0.052168   0.028159
    31  H    0.001662  -0.000089  -0.062613  -0.032042   0.003947  -0.010414
    32  H    0.003371   0.000140   0.042879  -0.116998   0.004917   0.098009
    33  H    0.022036  -0.006492  -0.015956   0.143347  -0.449941  -0.117491
    34  H    0.332094  -0.000153   0.029158  -0.146171  -0.012528   0.066005
    35  H   -0.005828   0.025840   0.009057   0.029464  -0.055999  -0.034107
    36  H    0.001878  -0.024689  -0.001674  -0.002408  -0.330477  -0.008769
    37  H   -0.001731   0.016331   0.000621  -0.038786   0.029874   0.073466
    38  H   -0.000000  -0.003544  -0.000015   0.000429   0.015831  -0.000075
    39  H    0.000292  -0.023474   0.001088  -0.008579  -0.075423   0.011268
    40  H   -0.000004  -0.000187  -0.000035   0.000561   0.002880  -0.000385
    41  H    0.016524   0.000289   0.003241  -0.025058   0.007474   0.017189
    42  H    0.000481   0.273258   0.017061  -0.140971   0.350457   0.107096
              13         14         15         16         17         18
     1  S    0.000628   0.004786  -0.172679  -0.213575   0.251396  -0.961252
     2  F    0.000000  -0.000002   0.009817   0.000032  -0.019682   0.038077
     3  O   -0.010390  -0.049175  -0.134651  -0.076258  -0.006914  -0.005649
     4  O   -0.006888   0.006101   0.009330   0.006203  -0.000464  -0.000270
     5  O   -0.013056   0.000913  -0.005991  -0.006459  -0.000011   0.000056
     6  N   -0.015976  -0.009182   1.684933   0.615101  -0.043313  -0.009986
     7  N   -0.120597   0.030009   0.034491   0.047175  -0.002850   0.000915
     8  N   -0.006326  -0.001057  -0.073659   0.184917   0.012194   0.016159
     9  C   -1.931131   0.114127  -0.043216   0.069070  -0.038484   0.007417
    10  C    2.693832  -0.590420   0.548778  -0.433548   0.236624   0.083844
    11  C    0.049812   0.071327 -26.440517  -5.336161  -3.184995   0.827042
    12  C   -1.675027   0.373833   0.341283   0.474293  -0.100652   0.056082
    13  C    6.456396  -0.205725  -0.026125  -0.025363   0.004512   0.004568
    14  C   -0.205725   5.793724  -0.033108  -0.007617  -0.016329  -0.000469
    15  C   -0.026125  -0.033108  28.767380   2.757935   2.798230  -0.790759
    16  C   -0.025363  -0.007617   2.757935   7.132902  -0.000154   0.072517
    17  C    0.004512  -0.016329   2.798230  -0.000154  19.322168  -8.497151
    18  C    0.004568  -0.000469  -0.790759   0.072517  -8.497151  20.103749
    19  C   -0.003876  -0.002859  -0.194989  -0.033926  -0.002567  -0.003402
    20  C    0.001535   0.001020  -1.249108  -0.197779  -3.197540  -0.848267
    21  C   -0.011320   0.021585  -0.670447   0.284818  -1.356120  -3.696408
    22  C   -0.000431   0.000008  -0.312631   0.011640   0.242210  -2.055605
    23  C    0.000715   0.002860   0.041646  -0.020899  -1.736190   2.305711
    24  H   -0.075353  -0.060982   0.008984   0.008585   0.001153   0.005765
    25  H    0.047355  -0.048390   0.030709  -0.002625   0.005181   0.003915
    26  H    0.000370   0.002482  -0.515577  -0.163401  -0.075731   0.086372
    27  H    0.446735   0.019860  -0.005616  -0.001570  -0.000090   0.000091
    28  H    0.442437  -0.025362  -0.000978  -0.000741   0.000033   0.000005
    29  H    0.503285   0.002664  -0.000056   0.000227  -0.000086  -0.000153
    30  H    0.022060   0.441919   0.055256   0.000466   0.004099  -0.023979
    31  H   -0.003091   0.470813  -0.001451  -0.000772  -0.001763  -0.000714
    32  H   -0.058702   0.369310  -0.005680   0.001675   0.000926   0.001436
    33  H    0.004143  -0.000655   0.249959   0.020592   0.020074  -0.012222
    34  H    0.004717  -0.003761   0.005417   0.002152   0.000080  -0.001090
    35  H    0.002067   0.004324  -0.044530   0.419567  -0.033139   0.050834
    36  H   -0.000436   0.000195   0.279091   0.454487   0.052494  -0.075594
    37  H   -0.000679  -0.000699  -0.142649   0.429613  -0.019263   0.024132
    38  H    0.000010   0.000031  -0.010451  -0.000937  -0.121351   0.163365
    39  H   -0.000722   0.002078   0.032107   0.007385   0.375537  -0.158074
    40  H    0.000035  -0.000070  -0.006299  -0.000424  -0.021281   0.034589
    41  H   -0.002186  -0.000737  -0.007545   0.001552  -0.000397   0.000216
    42  H   -0.007121  -0.001411  -0.269099  -0.042085  -0.031040  -0.017276
              19         20         21         22         23         24
     1  S    0.000362   0.403702   0.380018   0.081525  -0.100566  -0.001291
     2  F    0.000000  -0.207662  -0.051406   0.342986  -0.107750  -0.000000
     3  O    0.006080  -0.012368   0.011793   0.002843  -0.000826  -0.004587
     4  O    0.112857  -0.000078   0.000092   0.000015  -0.000029  -0.000195
     5  O    0.414713   0.000000  -0.000005   0.000000  -0.000001   0.001841
     6  N   -0.038589  -0.045315   0.059066   0.002363  -0.006312   0.004962
     7  N    0.345255  -0.000400   0.002558   0.000049  -0.000228  -0.021504
     8  N   -0.000274  -0.180879   0.185722   0.056718  -0.091328   0.000298
     9  C   -0.027610  -0.006070   0.033448   0.000869  -0.001772   0.301604
    10  C   -0.441262   0.087400  -0.272101  -0.016202   0.035891   0.108097
    11  C    0.298081   0.867852  -2.953623  -0.352242   0.384426  -0.028560
    12  C    0.124571  -0.029149   0.220482   0.005600  -0.015705  -0.048145
    13  C   -0.003876   0.001535  -0.011320  -0.000431   0.000715  -0.075353
    14  C   -0.002859   0.001020   0.021585   0.000008   0.002860  -0.060982
    15  C   -0.194989  -1.249108  -0.670447  -0.312631   0.041646   0.008984
    16  C   -0.033926  -0.197779   0.284818   0.011640  -0.020899   0.008585
    17  C   -0.002567  -3.197540  -1.356120   0.242210  -1.736190   0.001153
    18  C   -0.003402  -0.848267  -3.696408  -2.055605   2.305711   0.005765
    19  C    4.845649   0.000473  -0.002082  -0.000088   0.000123  -0.000552
    20  C    0.000473  10.490456  -0.081737   0.416774  -0.265932  -0.000207
    21  C   -0.002082  -0.081737  13.815928   1.676939  -1.355401  -0.000657
    22  C   -0.000088   0.416774   1.676939   6.673821  -0.893896   0.000005
    23  C    0.000123  -0.265932  -1.355401  -0.893896   7.676878   0.000201
    24  H   -0.000552  -0.000207  -0.000657   0.000005   0.000201   0.637298
    25  H   -0.043222   0.002105  -0.004647  -0.000564   0.001047   0.022718
    26  H    0.010087   0.036597  -0.023903  -0.003866   0.008337   0.000025
    27  H    0.005149   0.000030  -0.000307  -0.000014   0.000020  -0.016417
    28  H   -0.009451   0.000007  -0.000208   0.000000   0.000008   0.016464
    29  H   -0.000007  -0.000013   0.000073   0.000004  -0.000009  -0.017294
    30  H   -0.000565  -0.003158  -0.004667   0.001114  -0.001883  -0.025986
    31  H   -0.001909   0.000065   0.002385   0.000042   0.000575  -0.009877
    32  H    0.002457  -0.000283   0.000641   0.000038  -0.000724   0.019086
    33  H   -0.020211  -0.003804   0.009748   0.001548  -0.001795  -0.001168
    34  H   -0.022826  -0.000084   0.000493   0.000048  -0.000118  -0.009650
    35  H    0.002890   0.000994   0.001370  -0.001885   0.007043   0.000440
    36  H   -0.000593  -0.005992  -0.007595   0.000501  -0.002396   0.000187
    37  H   -0.000373   0.001701  -0.002299  -0.000557   0.000468  -0.000582
    38  H    0.000005   0.321016  -0.011749  -0.039021   0.022778  -0.000003
    39  H   -0.000023  -0.021826   0.280661   0.046322  -0.197862   0.000232
    40  H   -0.000000   0.016156  -0.020271  -0.025801   0.338830  -0.000002
    41  H    0.015354  -0.000046   0.000028  -0.000003   0.000001   0.000036
    42  H    0.000533   0.003206  -0.075139  -0.001999  -0.012469  -0.001603
              25         26         27         28         29         30
     1  S   -0.002150   0.018707   0.000017   0.000080  -0.000021  -0.000589
     2  F   -0.000000   0.000008   0.000000   0.000000  -0.000000   0.000018
     3  O    0.000397  -0.002077  -0.000340  -0.001600   0.001403   0.007045
     4  O    0.005870  -0.004007   0.000648  -0.001733   0.000112   0.000533
     5  O    0.009014   0.001479  -0.001668   0.000546  -0.000337  -0.000220
     6  N    0.033384  -0.149855  -0.002016  -0.002032  -0.000277   0.013118
     7  N   -0.132810  -0.005005   0.028469  -0.020471   0.001659  -0.001956
     8  N   -0.002949   0.033395  -0.000018   0.000015  -0.000009   0.006679
     9  C   -0.246424  -0.001416  -0.077445  -0.136742  -0.176029  -0.191271
    10  C    0.998826  -0.059245  -0.033937   0.133587   0.063354   0.051777
    11  C   -0.034298   1.003855   0.010495   0.002677  -0.001178  -0.052168
    12  C   -0.438293   0.028566  -0.001750  -0.053819  -0.030291   0.028159
    13  C    0.047355   0.000370   0.446735   0.442437   0.503285   0.022060
    14  C   -0.048390   0.002482   0.019860  -0.025362   0.002664   0.441919
    15  C    0.030709  -0.515577  -0.005616  -0.000978  -0.000056   0.055256
    16  C   -0.002625  -0.163401  -0.001570  -0.000741   0.000227   0.000466
    17  C    0.005181  -0.075731  -0.000090   0.000033  -0.000086   0.004099
    18  C    0.003915   0.086372   0.000091   0.000005  -0.000153  -0.023979
    19  C   -0.043222   0.010087   0.005149  -0.009451  -0.000007  -0.000565
    20  C    0.002105   0.036597   0.000030   0.000007  -0.000013  -0.003158
    21  C   -0.004647  -0.023903  -0.000307  -0.000208   0.000073  -0.004667
    22  C   -0.000564  -0.003866  -0.000014   0.000000   0.000004   0.001114
    23  C    0.001047   0.008337   0.000020   0.000008  -0.000009  -0.001883
    24  H    0.022718   0.000025  -0.016417   0.016464  -0.017294  -0.025986
    25  H    0.595415   0.000072  -0.003659   0.010627   0.001524  -0.005314
    26  H    0.000072   0.665204   0.000291   0.000112  -0.000098  -0.002646
    27  H   -0.003659   0.000291   0.542056  -0.026279  -0.020600  -0.001521
    28  H    0.010627   0.000112  -0.026279   0.532535  -0.032990  -0.000564
    29  H    0.001524  -0.000098  -0.020600  -0.032990   0.521991   0.005046
    30  H   -0.005314  -0.002646  -0.001521  -0.000564   0.005046   0.582483
    31  H   -0.000514   0.000129   0.001051  -0.004670   0.005677  -0.013049
    32  H    0.009221   0.000382  -0.000183   0.008029  -0.008526  -0.047615
    33  H   -0.002764  -0.040048  -0.001672   0.000154   0.000444   0.008286
    34  H   -0.003550  -0.000878   0.005538  -0.002143   0.001783   0.001695
    35  H   -0.001006   0.020323   0.000244   0.000110  -0.000066  -0.001770
    36  H    0.000005  -0.022531  -0.000026  -0.000005  -0.000001   0.000077
    37  H   -0.000752  -0.011847   0.000058  -0.000018   0.000001   0.000095
    38  H    0.000019   0.000727   0.000000  -0.000000  -0.000000  -0.000038
    39  H   -0.000217  -0.000617  -0.000022  -0.000027  -0.000001  -0.003256
    40  H    0.000024   0.000102   0.000001  -0.000000  -0.000001   0.000117
    41  H   -0.001569   0.000298   0.000087  -0.000079  -0.000006  -0.000187
    42  H   -0.001057   0.005869   0.000054   0.000037   0.000009   0.002353
              31         32         33         34         35         36
     1  S    0.000358  -0.000602  -0.007271   0.000395  -0.000841   0.007954
     2  F    0.000000  -0.000001  -0.000001  -0.000000   0.000009   0.000002
     3  O   -0.003414   0.000714   0.011399   0.000947   0.003501  -0.002223
     4  O    0.000023  -0.000463   0.011330   0.004143  -0.000711  -0.000615
     5  O    0.000008   0.000065  -0.002012  -0.014179   0.000082   0.000022
     6  N   -0.000660   0.000027   0.329391   0.002645  -0.032754   0.031331
     7  N    0.001662   0.003371   0.022036   0.332094  -0.005828   0.001878
     8  N   -0.000089   0.000140  -0.006492  -0.000153   0.025840  -0.024689
     9  C   -0.062613   0.042879  -0.015956   0.029158   0.009057  -0.001674
    10  C   -0.032042  -0.116998   0.143347  -0.146171   0.029464  -0.002408
    11  C    0.003947   0.004917  -0.449941  -0.012528  -0.055999  -0.330477
    12  C   -0.010414   0.098009  -0.117491   0.066005  -0.034107  -0.008769
    13  C   -0.003091  -0.058702   0.004143   0.004717   0.002067  -0.000436
    14  C    0.470813   0.369310  -0.000655  -0.003761   0.004324   0.000195
    15  C   -0.001451  -0.005680   0.249959   0.005417  -0.044530   0.279091
    16  C   -0.000772   0.001675   0.020592   0.002152   0.419567   0.454487
    17  C   -0.001763   0.000926   0.020074   0.000080  -0.033139   0.052494
    18  C   -0.000714   0.001436  -0.012222  -0.001090   0.050834  -0.075594
    19  C   -0.001909   0.002457  -0.020211  -0.022826   0.002890  -0.000593
    20  C    0.000065  -0.000283  -0.003804  -0.000084   0.000994  -0.005992
    21  C    0.002385   0.000641   0.009748   0.000493   0.001370  -0.007595
    22  C    0.000042   0.000038   0.001548   0.000048  -0.001885   0.000501
    23  C    0.000575  -0.000724  -0.001795  -0.000118   0.007043  -0.002396
    24  H   -0.009877   0.019086  -0.001168  -0.009650   0.000440   0.000187
    25  H   -0.000514   0.009221  -0.002764  -0.003550  -0.001006   0.000005
    26  H    0.000129   0.000382  -0.040048  -0.000878   0.020323  -0.022531
    27  H    0.001051  -0.000183  -0.001672   0.005538   0.000244  -0.000026
    28  H   -0.004670   0.008029   0.000154  -0.002143   0.000110  -0.000005
    29  H    0.005677  -0.008526   0.000444   0.001783  -0.000066  -0.000001
    30  H   -0.013049  -0.047615   0.008286   0.001695  -0.001770   0.000077
    31  H    0.512595  -0.030025  -0.000288  -0.000090   0.000447  -0.000004
    32  H   -0.030025   0.548894  -0.002434  -0.001324  -0.000191   0.000040
    33  H   -0.000288  -0.002434   0.402699   0.002109  -0.005536   0.004168
    34  H   -0.000090  -0.001324   0.002109   0.353912  -0.001366   0.000085
    35  H    0.000447  -0.000191  -0.005536  -0.001366   0.506631  -0.036191
    36  H   -0.000004   0.000040   0.004168   0.000085  -0.036191   0.550464
    37  H   -0.000074   0.000047  -0.000145   0.000911  -0.024995  -0.042534
    38  H    0.000003  -0.000005  -0.000080  -0.000001   0.000096  -0.000172
    39  H   -0.000112   0.000479  -0.000039   0.000033  -0.000280   0.000533
    40  H    0.000001  -0.000018  -0.000015  -0.000002   0.000040  -0.000045
    41  H   -0.000067   0.000229  -0.002441   0.001249  -0.000170   0.000007
    42  H   -0.000520   0.000380  -0.001772   0.000509  -0.005715  -0.003025
              37         38         39         40         41         42
[...]
 01415,-0.00000011,-0.00000763,0.00047939,0.00000775,0.00027270,0.00067
 530,-0.00170180,0.00510233,-0.00000295,0.00000212,0.00001630,0.0788406
 8,-0.10226460,-0.09961451,-0.00058576,0.00042034,-0.00071465,0.0074640
 0,-0.00711755,0.00088033,-0.00047645,-0.00314839,0.00391054,0.00000109
 ,0.00000025,-0.00000224,-0.00000196,-0.00000048,-0.00000073,-0.0000012
 5,0.00000497,-0.00000189,0.00000102,0.00000031,-0.00000045,-0.00000063
 ,-0.00000100,-0.00000096,-0.00000085,0.00000051,0.00000062,-0.00000023
 ,-0.00000080,0.00000346,0.00000004,0.00000061,0.00000007,-0.00000324,-
 0.00000085,-0.00000269,-0.00000155,-0.00000157,0.00000869,0.00000215,-
 0.00000182,0.00000256,0.00000665,-0.00000574,0.00000277,0.00000332,0.0
 0000679,0.00000590,-0.00000275,0.00000146,0.00000133,-0.08583107,0.110
 32804,0.09499050,-0.00016231,-0.00093874,-0.00032677,-0.00145744,0.001
 12381,0.00078773,0.00022407,0.00018643,0.00018907,0.00001147,0.0000247
 3,0.00001887,0.00003735,0.00004292,-0.00001803,-0.00004327,0.00016362,
 0.00013095,0.00004977,0.00005496,0.00001702,0.00113772,0.00130322,-0.0
 0018389,-0.00000067,-0.00001231,-0.00000270,-0.00001977,0.00000076,0.0
 0001070,0.00006213,-0.00000742,0.00004947,-0.00015278,-0.00024182,-0.0
 0028210,-0.00000193,0.00001116,-0.00000177,-0.00004402,0.00002298,0.00
 000112,0.00037385,-0.00016013,-0.00024550,-0.00001185,0.00000245,-0.00
 000223,-0.00080732,-0.00255594,-0.00016422,0.01162832,-0.01138364,-0.0
 0735414,-0.00005676,-0.00009605,-0.00001215,-0.00056946,-0.00034164,-0
 .00029802,-0.14345987,0.10799151,0.07566684,-0.00337423,-0.00283895,0.
 00084197,-0.01101116,0.02216833,0.01413519,-0.00001600,0.00000203,0.00
 000979,0.00000889,-0.00000145,0.00000274,0.00002656,0.00001843,0.00000
 803,0.00000804,0.00000097,-0.00000189,0.00000302,0.00000007,0.00000437
 ,-0.00000182,-0.00000149,-0.00000066,0.00001338,-0.00001798,-0.0000306
 3,-0.00000020,0.00000207,-0.00000720,0.00002304,0.00000329,0.00001155,
 -0.00001673,0.00000779,-0.00000925,-0.00000708,-0.00000141,0.00000218,
 0.00000109,-0.00001019,0.00001234,-0.00000080,0.00001190,-0.00000829,-
 0.00000087,0.00000084,0.00000301,0.00004113,0.00011533,-0.00007112,0.1
 4696880,-0.00023888,-0.00040327,-0.00047465,-0.00047199,0.00022248,0.0
 0036020,0.00024912,0.00014223,0.00020970,0.00001219,0.00001002,0.00001
 312,0.00002012,0.00001522,-0.00000444,-0.00004550,0.00013186,0.0001180
 0,0.00004165,0.00000480,0.00001692,0.00135114,0.00142524,0.00218360,0.
 00000893,0.00001330,-0.00000740,-0.00003101,0.00002970,0.00001698,0.00
 005887,0.00005904,-0.00005325,-0.00013751,-0.00020325,-0.00025803,-0.0
 0000559,-0.00000658,0.00000085,-0.00001796,-0.00000147,-0.00000397,0.0
 0024016,-0.00097368,-0.00034320,0.00000385,-0.00000362,-0.00000572,-0.
 00320792,-0.00112932,-0.00247347,0.01499272,-0.01334317,-0.01137230,-0
 .00002985,-0.00004091,-0.00000997,-0.00040738,-0.00012543,0.00066130,0
 .10828716,-0.19704228,-0.10275818,-0.00218558,0.00220853,-0.00268764,-
 0.00361048,0.00803793,0.00272204,-0.00000545,0.00000773,0.00000286,0.0
 0001444,-0.00000511,0.00000400,0.00003134,0.00001632,0.00000799,-0.000
 00236,0.00000148,0.00000119,0.00000205,0.00000102,0.00000050,0.0000050
 5,-0.00000552,0.00000017,0.00000641,0.00002721,-0.00000356,0.00001960,
 -0.00001373,0.00000495,0.,-0.00000338,0.00000134,-0.00001641,0.0000086
 4,-0.00001338,-0.00001102,0.00000903,-0.00000316,-0.00002699,-0.000003
 90,0.00001061,-0.00000370,-0.00000341,-0.00001194,-0.00000110,0.000006
 98,0.00001266,0.00013312,-0.00011099,0.00022864,-0.11480581,0.20202379
 ,0.00003682,-0.00031674,0.00044689,-0.00001711,0.00005075,-0.00027873,
 0.00008964,0.00014532,-0.00000748,0.00000926,0.00001333,-0.00000546,0.
 00003205,0.00003693,-0.00002702,0.00000134,0.00006616,0.00001161,0.000
 02319,0.00005834,-0.00000262,-0.00024914,0.00216098,-0.00223609,0.0000
 0341,-0.00003225,0.00005178,-0.00001288,-0.00002294,0.00000948,0.00006
 576,-0.00008945,0.00015217,-0.00006486,-0.00012417,-0.00008585,0.00000
 935,0.00002466,-0.00002067,-0.00007295,0.00004619,-0.00002676,-0.00004
 696,-0.00025443,-0.00055737,-0.00002409,0.00000975,0.00000882,-0.00045
 907,-0.00258387,0.00380265,0.00598735,-0.00617175,-0.00087895,-0.00004
 843,-0.00006909,0.00001343,-0.00033425,0.00063188,-0.00088756,0.075902
 77,-0.10278843,-0.10216490,0.00114255,-0.00255166,0.00681725,0.0010520
 3,-0.00227571,0.00269310,-0.00000039,0.00000289,-0.00000788,-0.0000017
 0,-0.00000557,-0.00000303,0.00000510,0.00001468,0.00001488,0.00001813,
 0.00000133,-0.00000201,-0.00000368,-0.00000285,-0.00000008,-0.00000601
 ,0.00000051,0.00000365,0.00001416,-0.00003952,0.00000643,-0.00000208,0
 .00000444,0.00000032,0.00001652,0.00000048,0.00000088,-0.00001396,-0.0
 0000243,0.00000344,0.00000620,-0.00000365,0.00001385,0.00001039,-0.000
 00702,0.00001430,0.00000022,0.00001289,-0.00000733,-0.00000419,-0.0000
 0226,0.00000200,-0.00006147,0.00023250,-0.00048667,-0.08195254,0.11217
 759,0.09697031,0.00014915,-0.00002211,-0.00004501,0.00113282,-0.000741
 97,-0.00130648,-0.00007529,0.00004558,0.00002156,-0.00000506,0.0000071
 1,0.00000538,0.00000298,0.00000660,0.00000057,-0.00001804,0.00002204,0
 .00001419,-0.00000257,0.00001719,0.00000054,-0.00016045,-0.00156398,-0
 .00058100,-0.00000595,-0.00001092,0.00000127,0.00000667,-0.00000746,-0
 .00000128,0.00005945,-0.00010878,-0.00011162,0.00002274,-0.00003336,-0
 .00001734,0.00000251,0.00000657,-0.00000175,-0.00000402,0.00000713,-0.
 00000279,-0.00048786,0.00025170,0.00016619,-0.00000761,0.00000743,-0.0
 0002003,-0.00092052,0.00026683,0.00016589,-0.00450751,0.00005188,0.002
 32748,-0.00000275,-0.00001636,-0.00000844,-0.00205651,0.00233977,0.002
 40057,-0.00895050,-0.02467919,-0.01009080,0.01201865,0.01488813,0.0061
 4612,-0.12190061,-0.11455903,-0.04121281,-0.00000086,-0.00000121,0.000
 00078,-0.00000261,0.00000012,0.00000046,-0.00005307,-0.00001745,0.0000
 0602,0.00000310,-0.00000036,-0.00000137,-0.00000039,-0.00000030,0.0000
 0153,-0.00000302,0.00000203,-0.00000046,0.00000366,-0.00001290,0.00000
 221,-0.00000721,0.00000554,-0.00000236,0.00000343,0.00000100,0.0000020
 6,0.00000080,0.00000384,0.00000572,0.00000045,-0.00000431,-0.00000069,
 0.00000494,0.00000122,-0.00000016,0.00000132,0.00000129,-0.00000025,-0
 .00000102,-0.00000319,0.00000580,0.00054114,0.00079788,0.00028359,0.00
 076251,0.00049621,-0.00080494,0.12429221,0.00006381,-0.00012150,-0.000
 03694,-0.00020362,0.00105083,0.00242495,0.00003333,-0.00002349,-0.0000
 0273,0.00000761,-0.00000417,-0.00000083,0.00000355,-0.00000132,-0.0000
 0129,0.00004016,-0.00000969,-0.00000287,0.00001001,-0.00000999,0.00000
 256,-0.00003100,0.00035102,-0.00034211,0.00000462,0.00000765,-0.000001
 18,-0.00000842,0.00000563,-0.00000078,-0.00000042,-0.00000923,0.000084
 34,-0.00002372,0.00002881,0.00001167,-0.00000215,-0.00000356,0.0000004
 1,-0.00000162,-0.00000188,0.00000017,0.00005674,0.00007478,0.00025382,
 0.00000070,-0.00001355,0.00001001,0.00107807,0.00025792,0.00027898,0.0
 0024320,0.00281310,-0.00234664,-0.00000662,0.00000368,0.00000498,0.002
 36066,-0.00088632,-0.00307284,0.00048827,0.00317954,-0.00011890,-0.012
 93138,-0.01358056,-0.00683939,-0.11356710,-0.25183733,-0.08679324,-0.0
 0000019,0.00000082,0.00000023,0.00000156,0.00000044,-0.00000038,0.0000
 1628,0.00000646,-0.00000315,-0.00000153,0.00000044,0.00000078,0.000000
 40,0.00000063,-0.00000035,0.00000211,-0.00000220,0.,-0.00000003,0.0000
 0701,-0.00000102,0.00000520,-0.00000434,0.00000052,-0.00000096,0.00000
 029,-0.00000034,-0.00000194,-0.00000590,-0.00000540,-0.00000285,0.0000
 0435,-0.00000077,-0.00000539,0.00000200,-0.00000312,-0.00000166,-0.000
 00640,0.00000236,0.00000330,0.00000232,0.00000074,-0.00052062,-0.00057
 877,-0.00015462,0.00030295,-0.00044074,0.00209323,0.12265280,0.2597006
 2,-0.00002595,-0.00003849,-0.00007772,-0.00102872,0.00252339,-0.002204
 17,0.00001856,-0.00000749,-0.00002178,0.00000682,0.00000031,-0.0000069
 8,0.00001162,0.00000978,-0.00001139,-0.00001117,-0.00001752,-0.0000195
 8,0.00000857,0.00001112,-0.00000286,0.00019367,-0.00007112,0.00096425,
 0.00000214,-0.00000192,0.00001102,-0.00000776,-0.00000593,0.00000266,-
 0.00011439,0.00010034,-0.00018264,-0.00000506,0.00001716,0.00001853,0.
 00000115,0.00000148,-0.00000393,-0.00000355,0.00000338,-0.00000542,0.0
 0010421,0.00025316,-0.00029995,0.00005670,0.00002667,0.00001561,0.0005
 7414,0.00046665,-0.00059917,0.00246944,-0.00232314,0.00570486,-0.00001
 809,-0.00001530,0.00001282,0.00240511,-0.00306645,0.00230987,0.0026178
 3,0.00474997,0.00510542,-0.00788752,-0.01217648,0.00028776,-0.04071742
 ,-0.08665015,-0.07201209,0.00000029,0.00000137,-0.00000319,-0.00000080
 ,-0.00000180,-0.00000134,-0.00000391,-0.00000130,0.00000657,0.00000304
 ,0.00000138,-0.00000057,-0.00000110,-0.00000085,-0.00000066,-0.0000007
 2,-0.00000045,0.00000178,0.00000275,-0.00000291,0.00000852,-0.00000167
 ,0.00000051,0.00000189,-0.00000323,-0.00000133,-0.00000287,-0.00000573
 ,-0.00000196,0.00000262,0.00000152,-0.00000011,0.00000471,0.00000360,-
 0.00000378,0.00000368,-0.00000117,-0.00000014,0.00000549,0.00000337,-0
 .00000164,-0.00002270,-0.00037762,-0.00040728,-0.00020158,-0.00091383,
 0.00206268,-0.00348824,0.04268998,0.09458980,0.06459358,-0.00001068,-0
 .00000866,-0.00000591,0.00009286,0.00001804,-0.00001027,0.00002236,0.0
 0016415,0.00001646,-0.17651702,-0.23099652,-0.04764766,-0.00548949,-0.
 00112745,0.00121138,-0.00079312,0.00038917,0.00002652,0.00003809,0.000
 95425,0.00430659,0.00004548,0.00001205,-0.00001070,0.00006447,-0.00003
 167,0.00000054,-0.00044796,-0.00004605,0.00081667,-0.00014946,-0.00036
 380,-0.00009123,0.00026356,-0.00015292,-0.00008928,0.00003002,0.000016
 61,0.00000849,-0.00001391,0.00004173,0.00000310,-0.00013708,0.00008703
 ,0.00000516,-0.00011301,-0.00001014,0.00007132,-0.00004009,-0.00000404
 ,0.00001076,0.00002258,0.00000168,0.00000669,0.01282914,0.01465496,-0.
 00018811,0.00001159,0.00003280,0.00001984,-0.00001410,-0.00002439,-0.0
 0000930,-0.00009481,-0.00001134,0.00001450,0.00003337,-0.00000780,-0.0
 0001418,-0.00000423,-0.00000863,-0.00001366,-0.00022077,-0.00041677,-0
 .00029934,-0.00013681,0.00002813,0.00003729,0.00001642,-0.00001953,0.0
 0003413,0.00001628,0.00000545,-0.00003034,-0.00001742,0.00001217,0.000
 00080,-0.00002277,-0.00001018,0.00000134,0.00000589,0.00001317,-0.0000
 0440,0.00001402,-0.00000335,-0.00000711,0.00056246,-0.00096556,-0.0004
 4869,0.00131813,0.00025780,0.00071584,0.00005199,0.00002586,0.00001131
 ,0.00003611,0.00001656,-0.00001878,0.00001832,0.00001496,-0.00015247,-
 0.00000424,-0.00000165,0.00000071,-0.00000136,-0.00000428,0.00000051,0
 .00000067,-0.00000232,-0.00000110,0.16876288,0.00005442,0.00000967,-0.
 00000933,0.00005464,0.00000301,-0.00000662,0.00050241,0.00006463,0.000
 38702,-0.20756099,-0.32792963,-0.08884608,-0.00105685,0.00001335,0.006
 53639,0.00112297,0.00003761,0.00012303,0.00064657,0.00240797,-0.001671
 15,0.00010787,-0.00013353,-0.00006639,0.00002539,-0.00012829,-0.000179
 32,0.00010870,-0.00011256,0.00002946,-0.00022272,0.00038658,0.00003484
 ,-0.00055261,-0.00009256,-0.00037796,-0.00004680,0.00004143,-0.0000087
 4,-0.00001201,0.00005909,0.00003379,-0.00003058,0.00003233,0.00008968,
 0.00014475,-0.00007732,-0.00000257,0.00004457,0.00002228,-0.00000741,-
 0.00001636,-0.00004672,-0.00001723,-0.00848177,-0.01943691,-0.01113737
 ,-0.00000139,0.00000488,0.00000047,-0.00000794,-0.00000454,-0.00000303
 ,-0.00005633,0.00001225,0.00001138,0.00002007,-0.00001603,-0.00000590,
 0.00000627,-0.00002729,0.00006037,-0.00003532,0.00010291,-0.00015852,0
 .00009029,-0.00000598,-0.00003131,0.00004976,-0.00003151,-0.00005166,0
 .00000034,-0.00003158,0.00003979,0.00002884,0.00004549,0.00000422,0.00
 002460,-0.00001220,0.00000252,0.00000945,0.00002607,-0.00001128,-0.000
 01103,-0.00001326,0.00000778,-0.00126692,0.00006287,0.00017223,-0.0007
 6374,0.00002062,-0.00040809,-0.00006854,-0.00001419,-0.00002647,0.0000
 3095,-0.00001390,0.00003845,-0.00002936,0.00011122,0.00005046,0.,0.000
 00417,0.,-0.00000857,-0.00000454,-0.00000601,-0.00000164,0.00000071,-0
 .00000164,0.21748965,0.34455942,0.00004708,-0.00000544,0.00000896,0.00
 009702,0.00001312,-0.00001416,0.00038945,0.00013821,0.00024817,-0.0185
 6265,-0.05628843,-0.05178930,0.00090566,0.00665735,0.00275297,0.000630
 14,0.00008959,0.00009662,0.00471948,-0.00077336,-0.00642716,0.00010312
 ,-0.00011265,-0.00008014,0.00017813,-0.00022090,0.00031942,0.00019178,
 0.00121014,-0.00037361,-0.00019269,0.00015652,0.00007948,-0.00036425,-
 0.00014855,-0.00036879,0.00005685,0.00002622,0.00006750,-0.00003512,0.
 00006060,0.00010455,-0.00010958,0.00006824,0.00008718,-0.00003357,-0.0
 0010991,0.00004286,0.00003085,0.00002486,0.00000136,0.00001626,-0.0000
 3228,-0.00000887,-0.02834110,-0.04451986,-0.01017535,0.00000038,0.0000
 2578,0.00000609,-0.00001895,-0.00002562,-0.00000955,-0.00009618,0.0000
 0948,0.00002859,0.00004197,-0.00001706,-0.00002082,-0.00001543,0.00019
 733,0.00002223,-0.00003279,-0.00024684,0.00055115,0.00001883,-0.000028
 95,0.00003426,-0.00001031,-0.00001923,-0.00000665,0.00000532,-0.000014
 93,-0.00002221,-0.00002559,0.00002862,-0.00000653,-0.00000543,-0.00001
 323,0.00000102,0.00001489,0.00003699,-0.00002097,-0.00000544,-0.000022
 57,-0.00001617,-0.00111948,0.00016825,0.00021570,0.00003138,-0.0018059
 1,0.00034363,0.00001161,0.00001410,-0.00002201,0.00004978,0.00000474,0
 .00001051,-0.00003740,0.00006201,-0.00005705,-0.00000060,0.00000037,0.
 00000505,-0.00000697,-0.00000657,0.00000042,0.00000022,-0.00000231,0.0
 0000091,0.04173108,0.09537422,0.06434979,0.00667645,-0.00728563,-0.004
 33236,0.00183118,0.00032407,-0.00020545,0.02999121,0.01356238,0.014969
 85,0.00049342,0.00096704,0.00069734,0.00147327,0.00176540,-0.00083026,
 -0.00468698,0.01359663,0.00871554,0.00203150,0.00169675,0.00080802,-0.
 18730550,0.08912531,0.07113599,0.00003942,0.00112011,-0.00014131,-0.00
 078439,0.00141670,0.00483164,0.00832091,-0.00438493,0.00051537,-0.0138
 0664,-0.02872238,-0.03044632,-0.00029201,-0.00038098,0.00015619,0.0000
 0315,-0.00029458,-0.00013677,0.01807117,0.00661740,0.00015971,-0.00290
 743,0.00036486,-0.00186659,-0.00123664,-0.00299718,-0.00104534,-0.0138
 1028,0.00383998,0.00366048,-0.00224594,-0.00397982,-0.00037953,0.00083
 491,0.00053321,0.00021983,0.00178866,0.00055218,-0.00014264,-0.0018098
 2,-0.00077297,-0.00003070,-0.00014834,0.00051178,0.00025137,-0.0003318
 6,0.00028160,0.00026987,0.00173026,-0.00055478,0.00036915,-0.00098951,
 0.00021887,-0.00006539,0.00000978,0.00009664,-0.00001788,0.00010664,0.
 00002819,0.00004082,0.00017855,-0.00018868,-0.00000300,0.00039881,0.00
 041545,-0.00034622,0.00016060,-0.00026436,0.00011508,0.00011089,0.0000
 1944,0.00016592,-0.00113889,0.00154396,-0.00050427,-0.00033990,0.00023
 478,0.00011936,0.00046838,-0.00068539,0.00088128,0.00007122,0.00088371
 ,-0.00053180,-0.00023080,-0.00027661,0.00080407,-0.00002060,0.00000926
 ,0.00004243,-0.00016345,-0.00070738,-0.00024605,0.00016423,-0.00006177
 ,-0.00004400,-0.00002838,-0.00033105,-0.00025774,0.15732273,-0.0025594
 3,-0.00024180,-0.00237232,-0.00082548,-0.00024597,0.00004638,-0.006475
 56,-0.01692879,-0.00615812,-0.00004184,-0.00035372,-0.00021404,-0.0003
 8217,-0.00052951,0.00020932,0.00101207,-0.00554620,-0.00379357,-0.0002
 2918,-0.00062604,-0.00022649,0.08868401,-0.13786832,-0.06618933,0.0000
 2208,-0.00010064,-0.00006918,0.00076466,-0.00015420,-0.00191158,-0.003
 30343,0.00062561,0.00071445,-0.00133997,0.01065549,0.00935354,0.000043
 64,0.00001873,0.00004978,0.00034545,-0.00003168,0.00005299,0.02016011,
 -0.01932760,-0.01466841,0.00080881,-0.00078112,0.00050262,-0.00516874,
 -0.00048871,0.00006868,-0.00374662,0.01608763,0.00977478,0.00057315,0.
 00121195,0.00017096,-0.00049678,0.00095996,0.00027748,-0.00001090,0.00
 083237,0.00088452,0.00089372,0.00042532,0.00008534,0.00008014,-0.00053
 409,-0.00014445,0.00009722,-0.00002777,-0.00003664,-0.00053763,0.00024
 224,-0.00007966,0.00067334,0.00024506,0.00016931,-0.00005970,-0.000015
 43,0.00001472,-0.00000535,-0.00001024,-0.00001851,-0.00002270,0.000030
 69,0.00000328,-0.00014056,-0.00012015,0.00021551,-0.00008812,0.0000544
 2,-0.00001531,-0.00014503,-0.00000452,-0.00007078,0.00038944,-0.000467
 62,0.00005606,0.00006650,-0.00001584,-0.00003666,-0.00067326,-0.000215
 70,0.00048068,0.00000843,-0.00013511,0.00019026,0.00007325,0.00038265,
 -0.00002908,-0.00035273,-0.00011006,-0.00005836,-0.00013903,-0.0005382
 5,-0.00043504,-0.00009534,0.00004188,-0.00002001,-0.00001921,0.0001039
 6,0.00004789,-0.08783725,0.15350109,-0.00080848,-0.00218106,0.00487727
 ,-0.00051458,-0.00013205,0.00001739,-0.00171023,-0.00443027,-0.0131128
 9,0.00007081,-0.00017457,-0.00022463,-0.00016008,-0.00024207,0.0000314
 6,-0.00011246,-0.00187814,-0.00239466,-0.00055180,-0.00034517,-0.00007
 433,0.07165352,-0.06478469,-0.07483160,0.00011575,-0.00032119,0.000214
 22,-0.00021099,-0.00127492,-0.00080232,-0.00152017,0.00108776,-0.00220
 298,-0.00630936,0.00642134,0.00398745,0.00006823,0.00008282,-0.0000900
 7,-0.00025270,0.00002883,-0.00005148,0.00781706,-0.01325662,-0.0041514
 3,0.00084457,0.00049715,0.00098864,-0.00141796,-0.00057728,0.00174758,
 -0.00016922,0.00693458,0.00018041,0.00020025,0.00064928,0.00029528,-0.
 00014275,-0.00008693,0.00065934,-0.00053456,0.00072767,-0.00041754,0.0
 0051753,0.00033858,-0.00004260,0.00005232,-0.00020567,-0.00041576,0.00
 008906,-0.00001896,-0.00006062,-0.00040940,0.00010900,-0.00011832,0.00
 021220,0.00018897,-0.00015631,0.00004253,-0.00001058,0.00000089,-0.000
 02606,-0.00000896,-0.00001167,-0.00003288,0.00002750,0.00000930,-0.000
 01058,0.00009229,0.00010701,0.00008552,0.00000312,-0.00000814,-0.00001
 584,-0.00000240,-0.00004690,0.00008501,-0.00013464,-0.00016365,0.00006
 795,-0.00005502,0.00003323,0.00044868,0.00049171,-0.00053007,-0.000017
 50,-0.00015131,0.00006498,0.00006148,-0.00016297,-0.00063793,-0.000093
 12,-0.00010669,0.00012160,-0.00000904,-0.00032706,0.00013704,-0.000038
 55,-0.00002834,0.00010624,-0.00000849,0.00003795,0.00004092,-0.0673556
 8,0.07317902,0.08692566\\0.00000267,-0.00000003,0.00000525,0.00001160,
 0.00000213,0.00000092,-0.00004523,0.00001109,-0.00001743,0.00002183,-0
 .00003339,-0.00010041,0.00001004,-0.00001029,-0.00002909,0.00000296,0.
 00001218,-0.00001261,-0.00000601,-0.00003242,-0.00002903,0.00001629,0.
 00000272,0.00002034,-0.00000618,-0.00001792,0.00001714,-0.00001480,0.0
 0000693,0.00001248,0.00000794,0.00000351,-0.00000788,0.00003856,0.0000
 1189,0.00002290,-0.00000625,-0.00000131,-0.00000784,0.00002112,0.00001
 812,-0.00001651,0.00000133,-0.00003130,-0.00001448,-0.00001738,-0.0000
 1291,0.00003531,0.00001194,0.00000769,-0.00000446,-0.00000898,-0.00000
 120,-0.00000026,-0.00001917,0.00008401,0.00014110,-0.00000058,-0.00000
 636,-0.00000309,0.00000063,0.00000099,0.00000070,-0.00001726,-0.000000
 36,-0.00000198,-0.00000252,0.00000235,0.00000363,0.00000370,-0.0000052
 7,0.00000512,-0.00000131,0.00000050,-0.00001083,0.00000012,-0.00000298
 ,-0.00000639,-0.00000579,0.00000236,-0.00000231,-0.00000017,-0.0000073
 8,0.00000111,0.00000486,-0.00000267,0.00000243,0.00000137,-0.00000756,
 -0.00000128,-0.00000473,-0.00000691,0.00000284,-0.00000163,-0.00000306
 ,0.00000074,-0.00000711,-0.00001170,0.00000409,-0.00000453,0.00001804,
 0.00000532,0.00000635,0.00000316,-0.00000239,0.00000406,0.00000390,-0.
 00000514,0.00000424,0.00000146,-0.00000893,0.00000315,-0.00000184,0.00
 000124,-0.00000037,0.00000246,0.00000115,0.00000405,0.00000323,0.00000
 053,-0.00000576,-0.00001386,0.00000071,-0.00000307,0.00001205,-0.00000
 271\\\@


 TIME IS IN FACT THE HERO OF THE PLOT. THE TIME
 WITH WHICH WE HAVE TO DEAL IS OF THE ORDER OF TWO
 BILLION YEARS...GIVEN SO MUCH TIME, THE "IMPOSSIBLE"
 BECOMES POSSIBLE, THE POSSIBLE PROBABLE, THE PROBABLE
 VIRTUALLY CERTAIN.  ONE HAS ONLY TO WAIT, TIME
 ITSELF PERFORMS THE MIRACLES.
 "ORIGIN OF LIFE" LECTURES, GEORGE WALD, 1954
 Job cpu time:       0 days  6 hours 43 minutes 41.4 seconds.
 Elapsed time:       0 days  0 hours 51 minutes 32.6 seconds.
 File lengths (MBytes):  RWF=   1273 Int=      0 D2E=      0 Chk=     27 Scr=      1
 Normal termination of Gaussian 16 at Mon Jul 30 19:02:11 2018.
