
Lmod is automatically replacing "intel/2020.1.217" with "gcc/10.3.0".


Due to MODULEPATH changes, the following have been reloaded:
  1) blis/0.8.1     2) flexiblas/3.0.4

The following have been reloaded with a version change:
  1) gcccore/.9.3.0 => gcccore/.10.3.0        3) openmpi/4.0.3 => openmpi/4.1.1
  2) libfabric/1.10.1 => libfabric/1.12.1     4) ucx/1.8.0 => ucx/1.9.0

To execute ORCA, run: 
   ${EBROOTORCA}/orca orca.inp > orca.out

                                 *****************
                                 * O   R   C   A *
                                 *****************

                                            #,                                       
                                            ###                                      
                                            ####                                     
                                            #####                                    
                                            ######                                   
                                           ########,                                 
                                     ,,################,,,,,                         
                               ,,#################################,,                 
                          ,,##########################################,,             
                       ,#########################################, ''#####,          
                    ,#############################################,,   '####,        
                  ,##################################################,,,,####,       
                ,###########''''           ''''###############################       
              ,#####''   ,,,,##########,,,,          '''####'''          '####       
            ,##' ,,,,###########################,,,                        '##       
           ' ,,###''''                  '''############,,,                           
         ,,##''                                '''############,,,,        ,,,,,,###''
      ,#''                                            '''#######################'''  
     '                                                          ''''####''''         
             ,#######,   #######,   ,#######,      ##                                
            ,#'     '#,  ##    ##  ,#'     '#,    #''#        ######   ,####,        
            ##       ##  ##   ,#'  ##            #'  '#       #        #'  '#        
            ##       ##  #######   ##           ,######,      #####,   #    #        
            '#,     ,#'  ##    ##  '#,     ,#' ,#      #,         ##   #,  ,#        
             '#######'   ##     ##  '#######'  #'      '#     #####' # '####'        



                  #######################################################
                  #                        -***-                        #
                  #          Department of theory and spectroscopy      #
                  #    Directorship and core code : Frank Neese         #
                  #        Max Planck Institute fuer Kohlenforschung    #
                  #                Kaiser Wilhelm Platz 1               #
                  #                 D-45470 Muelheim/Ruhr               #
                  #                      Germany                        #
                  #                                                     #
                  #                  All rights reserved                #
                  #                        -***-                        #
                  #######################################################


                         Program Version 5.0.2 -  RELEASE  -


 With contributions from (in alphabetic order):
   Daniel Aravena         : Magnetic Suceptibility
   Michael Atanasov       : Ab Initio Ligand Field Theory (pilot matlab implementation)
   Alexander A. Auer      : GIAO ZORA, VPT2 properties, NMR spectrum
   Ute Becker             : Parallelization
   Giovanni Bistoni       : ED, misc. LED, open-shell LED, HFLD
   Martin Brehm           : Molecular dynamics
   Dmytro Bykov           : SCF Hessian
   Vijay G. Chilkuri      : MRCI spin determinant printing, contributions to CSF-ICE
   Dipayan Datta          : RHF DLPNO-CCSD density
   Achintya Kumar Dutta   : EOM-CC, STEOM-CC
   Dmitry Ganyushin       : Spin-Orbit,Spin-Spin,Magnetic field MRCI
   Miquel Garcia          : C-PCM and meta-GGA Hessian, CC/C-PCM, Gaussian charge scheme
   Yang Guo               : DLPNO-NEVPT2, F12-NEVPT2, CIM, IAO-localization
   Andreas Hansen         : Spin unrestricted coupled pair/coupled cluster methods
   Benjamin Helmich-Paris : MC-RPA, TRAH-SCF, COSX integrals
   Lee Huntington         : MR-EOM, pCC
   Robert Izsak           : Overlap fitted RIJCOSX, COSX-SCS-MP3, EOM
   Marcus Kettner         : VPT2
   Christian Kollmar      : KDIIS, OOCD, Brueckner-CCSD(T), CCSD density, CASPT2, CASPT2-K
   Simone Kossmann        : Meta GGA functionals, TD-DFT gradient, OOMP2, MP2 Hessian
   Martin Krupicka        : Initial AUTO-CI
   Lucas Lang             : DCDCAS
   Marvin Lechner         : AUTO-CI (C++ implementation), FIC-MRCC
   Dagmar Lenk            : GEPOL surface, SMD
   Dimitrios Liakos       : Extrapolation schemes; Compound Job, initial MDCI parallelization
   Dimitrios Manganas     : Further ROCIS development; embedding schemes
   Dimitrios Pantazis     : SARC Basis sets
   Anastasios Papadopoulos: AUTO-CI, single reference methods and gradients
   Taras Petrenko         : DFT Hessian,TD-DFT gradient, ASA, ECA, R-Raman, ABS, FL, XAS/XES, NRVS
   Peter Pinski           : DLPNO-MP2, DLPNO-MP2 Gradient
   Christoph Reimann      : Effective Core Potentials
   Marius Retegan         : Local ZFS, SOC
   Christoph Riplinger    : Optimizer, TS searches, QM/MM, DLPNO-CCSD(T), (RO)-DLPNO pert. Triples
   Tobias Risthaus        : Range-separated hybrids, TD-DFT gradient, RPA, STAB
   Michael Roemelt        : Original ROCIS implementation
   Masaaki Saitow         : Open-shell DLPNO-CCSD energy and density
   Barbara Sandhoefer     : DKH picture change effects
   Avijit Sen             : IP-ROCIS
   Kantharuban Sivalingam : CASSCF convergence, NEVPT2, FIC-MRCI
   Bernardo de Souza      : ESD, SOC TD-DFT
   Georgi Stoychev        : AutoAux, RI-MP2 NMR, DLPNO-MP2 response
   Willem Van den Heuvel  : Paramagnetic NMR
   Boris Wezisla          : Elementary symmetry handling
   Frank Wennmohs         : Technical directorship


 We gratefully acknowledge several colleagues who have allowed us to
 interface, adapt or use parts of their codes:
   Stefan Grimme, W. Hujo, H. Kruse, P. Pracht,  : VdW corrections, initial TS optimization,
                  C. Bannwarth, S. Ehlert          DFT functionals, gCP, sTDA/sTD-DF
   Ed Valeev, F. Pavosevic, A. Kumar             : LibInt (2-el integral package), F12 methods
   Garnet Chan, S. Sharma, J. Yang, R. Olivares  : DMRG
   Ulf Ekstrom                                   : XCFun DFT Library
   Mihaly Kallay                                 : mrcc  (arbitrary order and MRCC methods)
   Jiri Pittner, Ondrej Demel                    : Mk-CCSD
   Frank Weinhold                                : gennbo (NPA and NBO analysis)
   Christopher J. Cramer and Donald G. Truhlar   : smd solvation model
   Lars Goerigk                                  : TD-DFT with DH, B97 family of functionals
   V. Asgeirsson, H. Jonsson                     : NEB implementation
   FAccTs GmbH                                   : IRC, NEB, NEB-TS, DLPNO-Multilevel, CI-OPT
                                                   MM, QMMM, 2- and 3-layer-ONIOM, Crystal-QMMM,
                                                   LR-CPCM, SF, NACMEs, symmetry and pop. for TD-DFT,
                                                   nearIR, NL-DFT gradient (VV10), updates on ESD,
                                                   ML-optimized integration grids
   S Lehtola, MJT Oliveira, MAL Marques          : LibXC Library
   Liviu Ungur et al                             : ANISO software


 Your calculation uses the libint2 library for the computation of 2-el integrals
 For citations please refer to: http://libint.valeyev.net

 Your ORCA version has been built with support for libXC version: 5.1.0
 For citations please refer to: https://tddft.org/programs/libxc/

 This ORCA versions uses:
   CBLAS   interface :  Fast vector & matrix operations
   LAPACKE interface :  Fast linear algebra routines
   SCALAPACK package :  Parallel linear algebra routines
   Shared memory     :  Shared parallel matrices
   BLAS/LAPACK       :  OpenBLAS 0.3.15  USE64BITINT DYNAMIC_ARCH NO_AFFINITY Zen SINGLE_THREADED
        Core in use  :  Zen
   Copyright (c) 2011-2014, The OpenBLAS Project


Your calculation utilizes the atom-pairwise dispersion correction
with the Becke-Johnson damping scheme (D3BJ)
Cite in your paper:
S.Grimme, S.Ehrlich, L.Goerigk, J Comput Chem, (2011), 32, 1456–1465 
S.Grimme, J.Antony, S.Ehrlich and H.Krieg, J.Chem.Phys., 132, (2010), 154104 
   

================================================================================

----- Orbital basis set information -----
Your calculation utilizes the basis: def2-TZVPP
   F. Weigend and R. Ahlrichs, Phys. Chem. Chem. Phys. 7, 3297 (2005).

----- AuxJ basis set information -----
Your calculation utilizes the auxiliary basis: def2/J
   F. Weigend, Phys. Chem. Chem. Phys. 8, 1057 (2006).

================================================================================
                                        WARNINGS
                       Please study these warnings very carefully!
================================================================================


WARNING: Geometry Optimization
  ===> : Switching off AutoStart
         For restart on a previous wavefunction, please use MOREAD

INFO   : the flag for use of the SHARK integral package has been found!

================================================================================
                                       INPUT FILE
================================================================================
NAME = GGG-H_tt_029_OptFreq.inp
|  1> # GGG-H_tt_029 (old 183)
|  2> ! wB97X-D3BJ Opt Freq def2-TZVPP def2/J RIJCOSX VeryTightSCF
|  3> ! PAL8 defgrid3 VeryTightOpt
|  4> 
|  5> %maxcore 4096
|  6> 
|  7> %geom
|  8>   MaxIter 300
|  9>   # MaxStep 0.1
| 10>   Calc_Hess true
| 11>   Recalc_Hess 10
| 12> end
| 13> 
| 14> %chelpg
| 15>   grid 0.1
| 16>   rmax 3.0
| 17> end
| 18> 
| 19> * xyz 1 1 
| 20>  N   +0.604597   +1.924960   +2.313915
| 21>  H   +1.258015   +2.274160   +1.612187
| 22>  C   +1.002499   +1.832391   +3.703266
| 23>  C   +1.115793   +0.408486   +4.240040
| 24>  H   +1.979908   +2.328686   +3.828435
| 25>  H   +0.280471   +2.334824   +4.367326
| 26>  O   +0.892011   +0.065215   +5.366192
| 27>  C   -0.560622   +1.327386   +1.910864
| 28>  C   -0.730956   +1.224361   +0.380266
| 29>  O   -1.324266   +0.777752   +2.694803
| 30>  N   +0.000000   +0.000000   +0.000000
| 31>  H   -0.304768   +2.077093   -0.168953
| 32>  H   -1.792457   +1.101767   +0.131068
| 33>  H   -0.492065   -0.884927   +0.129442
| 34>  C   +1.343116   +0.000000   +0.000000
| 35>  C   +2.075815   -1.348215   +0.125824
| 36>  O   +2.052962   +1.017998   +0.000000
| 37>  H   +2.483909   -1.680245   -0.842189
| 38>  H   +1.479351   -2.151426   +0.581575
| 39>  O   +1.576786   -0.540715   +3.298373
| 40>  H   +1.506892   -1.381673   +3.805919
| 41>  N   +3.218777   -0.990993   +1.033598
| 42>  H   +3.991927   -1.671103   +1.044006
| 43>  H   +3.530185   -0.051248   +0.683339
| 44>  H   +2.838468   -0.823800   +2.003861
| 45> *
| 46> 
| 47>                          ****END OF INPUT****
================================================================================

                       *****************************
                       * Geometry Optimization Run *
                       *****************************

Geometry optimization settings:
Update method            Update   .... BFGS
Choice of coordinates    CoordSys .... Z-matrix Internals
Initial Hessian          InHess   .... Almoef's Model

Convergence Tolerances:
Energy Change            TolE     ....  2.0000e-07 Eh
Max. Gradient            TolMAXG  ....  3.0000e-05 Eh/bohr
RMS Gradient             TolRMSG  ....  8.0000e-06 Eh/bohr
Max. Displacement        TolMAXD  ....  2.0000e-04 bohr
RMS Displacement         TolRMSD  ....  1.0000e-04 bohr
Strict Convergence                ....  False
------------------------------------------------------------------------------
                        ORCA OPTIMIZATION COORDINATE SETUP
------------------------------------------------------------------------------

The optimization will be done in new redundant internal coordinates
Making redundant internal coordinates   ...  (new redundants) done
Evaluating the initial hessian          ...  (Is done on the fly) done
Evaluating the coordinates              ...  done
Calculating the B-matrix                .... done
Calculating the G-matrix                .... done
Diagonalizing the G-matrix              .... done
Small eigenvalue found = 5.291e-03
Small eigenvalue found = 1.309e-02
Small eigenvalue found = 2.848e-02
The first mode is                       ....   45
The number of degrees of freedom        ....   69

    -----------------------------------------------------------------
                    Redundant Internal Coordinates


    -----------------------------------------------------------------
         Definition                    Initial Value    d2E/dq (diagonal element)
    -----------------------------------------------------------------
      1. B(H   1,N   0)                  1.0204         0.000000   
      2. B(C   2,N   0)                  1.4482         0.000000   
      3. B(C   3,C   2)                  1.5259         0.000000   
      4. B(H   4,C   2)                  1.1033         0.000000   
      5. B(H   5,C   2)                  1.1022         0.000000   
      6. B(O   6,C   3)                  1.1984         0.000000   
      7. B(C   7,N   0)                  1.3701         0.000000   
      8. B(C   8,C   7)                  1.5435         0.000000   
      9. B(O   9,C   7)                  1.2247         0.000000   
     10. B(N  10,C   8)                  1.4758         0.000000   
     11. B(H  11,C   8)                  1.1002         0.000000   
     12. B(H  12,C   8)                  1.0972         0.000000   
     13. B(H  13,N  10)                  1.0208         0.000000   
     14. B(C  14,N  10)                  1.3431         0.000000   
     15. B(C  15,C  14)                  1.5396         0.000000   
     16. B(O  16,C  14)                  1.2410         0.000000   
     17. B(H  17,C  15)                  1.1017         0.000000   
     18. B(H  18,C  15)                  1.0994         0.000000   
     19. B(O  19,C   3)                  1.4143         0.000000   
     20. B(H  20,O  19)                  0.9847         0.000000   
     21. B(N  21,C  15)                  1.5027         0.000000   
     22. B(H  22,N  21)                  1.0298         0.000000   
     23. B(H  23,N  21)                  1.0501         0.000000   
     24. B(H  24,H  20)                  2.3091         0.000000   
     25. B(H  24,N  21)                  1.0555         0.000000   
     26. A(H   1,N   0,C   2)          120.3760         0.000000   
     27. A(C   2,N   0,C   7)          119.2099         0.000000   
     28. A(H   1,N   0,C   7)          119.4402         0.000000   
     29. A(C   3,C   2,H   5)          105.1935         0.000000   
     30. A(C   3,C   2,H   4)          108.3044         0.000000   
     31. A(N   0,C   2,H   4)          108.8744         0.000000   
     32. A(N   0,C   2,C   3)          114.6786         0.000000   
     33. A(N   0,C   2,H   5)          111.6480         0.000000   
     34. A(H   4,C   2,H   5)          107.8747         0.000000   
     35. A(O   6,C   3,O  19)          119.6241         0.000000   
     36. A(C   2,C   3,O  19)          114.5987         0.000000   
     37. A(C   2,C   3,O   6)          125.7318         0.000000   
     38. A(C   8,C   7,O   9)          122.4123         0.000000   
     39. A(N   0,C   7,O   9)          122.5293         0.000000   
     40. A(N   0,C   7,C   8)          114.4988         0.000000   
     41. A(C   7,C   8,H  11)          113.6124         0.000000   
     42. A(C   7,C   8,N  10)          104.8467         0.000000   
     43. A(H  11,C   8,H  12)          110.3640         0.000000   
     44. A(N  10,C   8,H  12)          109.1446         0.000000   
     45. A(C   7,C   8,H  12)          109.8427         0.000000   
     46. A(N  10,C   8,H  11)          108.8160         0.000000   
     47. A(H  13,N  10,C  14)          118.8194         0.000000   
     48. A(C   8,N  10,C  14)          119.6894         0.000000   
     49. A(C   8,N  10,H  13)          116.6019         0.000000   
     50. A(C  15,C  14,O  16)          116.4939         0.000000   
     51. A(N  10,C  14,O  16)          124.8879         0.000000   
     52. A(N  10,C  14,C  15)          118.4181         0.000000   
     53. A(H  17,C  15,H  18)          110.1829         0.000000   
     54. A(C  14,C  15,H  18)          114.5487         0.000000   
     55. A(C  14,C  15,H  17)          111.6157         0.000000   
     56. A(H  18,C  15,N  21)          109.6285         0.000000   
     57. A(H  17,C  15,N  21)          108.7043         0.000000   
     58. A(C  14,C  15,N  21)          101.7229         0.000000   
     59. A(C   3,O  19,H  20)          101.9377         0.000000   
     60. A(H  23,N  21,H  24)          105.7660         0.000000   
     61. A(H  22,N  21,H  24)          111.4606         0.000000   
     62. A(C  15,N  21,H  24)          108.5982         0.000000   
     63. A(H  22,N  21,H  23)          111.8238         0.000000   
     64. A(C  15,N  21,H  23)          103.6977         0.000000   
     65. A(C  15,N  21,H  22)          114.8456         0.000000   
     66. D(H   4,C   2,N   0,C   7)    177.4377         0.000000   
     67. D(H   5,C   2,N   0,C   7)    -63.5705         0.000000   
     68. D(H   5,C   2,N   0,H   1)    127.7810         0.000000   
     69. D(H   4,C   2,N   0,H   1)      8.7892         0.000000   
     70. D(C   3,C   2,N   0,H   1)   -112.7019         0.000000   
     71. D(C   3,C   2,N   0,C   7)     55.9466         0.000000   
     72. D(O   6,C   3,C   2,H   4)     90.3162         0.000000   
     73. D(O  19,C   3,C   2,H   5)    157.6518         0.000000   
     74. D(O  19,C   3,C   2,H   4)    -87.2075         0.000000   
     75. D(O   6,C   3,C   2,H   5)    -24.8244         0.000000   
     76. D(O  19,C   3,C   2,N   0)     34.5947         0.000000   
     77. D(O   6,C   3,C   2,N   0)   -147.8816         0.000000   
     78. D(O   9,C   7,N   0,H   1)    172.9830         0.000000   
     79. D(C   8,C   7,N   0,C   2)   -167.3783         0.000000   
     80. D(C   8,C   7,N   0,H   1)      1.3777         0.000000   
     81. D(O   9,C   7,N   0,C   2)      4.2269         0.000000   
     82. D(H  12,C   8,C   7,O   9)     29.6736         0.000000   
     83. D(H  12,C   8,C   7,N   0)   -158.7101         0.000000   
     84. D(H  11,C   8,C   7,O   9)    153.8335         0.000000   
     85. D(N  10,C   8,C   7,O   9)    -87.4786         0.000000   
     86. D(N  10,C   8,C   7,N   0)     84.1377         0.000000   
     87. D(H  11,C   8,C   7,N   0)    -34.5503         0.000000   
     88. D(C  14,N  10,C   8,H  12)    168.7837         0.000000   
     89. D(C  14,N  10,C   8,H  11)     48.2902         0.000000   
     90. D(C  14,N  10,C   8,C   7)    -73.5871         0.000000   
     91. D(H  13,N  10,C   8,H  12)    -36.2414         0.000000   
     92. D(H  13,N  10,C   8,H  11)   -156.7350         0.000000   
     93. D(H  13,N  10,C   8,C   7)     81.3877         0.000000   
     94. D(O  16,C  14,N  10,C   8)    -17.2539         0.000000   
     95. D(C  15,C  14,N  10,H  13)      2.9901         0.000000   
     96. D(C  15,C  14,N  10,C   8)    157.4143         0.000000   
     97. D(O  16,C  14,N  10,H  13)   -171.6781         0.000000   
     98. D(N  21,C  15,C  14,O  16)     34.6730         0.000000   
     99. D(N  21,C  15,C  14,N  10)   -140.4414         0.000000   
    100. D(H  18,C  15,C  14,O  16)    152.8339         0.000000   
    101. D(H  18,C  15,C  14,N  10)    -22.2806         0.000000   
    102. D(H  17,C  15,C  14,O  16)    -81.0813         0.000000   
    103. D(H  17,C  15,C  14,N  10)    103.8043         0.000000   
    104. D(H  20,O  19,C   3,O   6)      6.8194         0.000000   
    105. D(H  20,O  19,C   3,C   2)   -175.4929         0.000000   
    106. D(H  24,N  21,C  15,H  18)    -50.4869         0.000000   
    107. D(H  24,N  21,C  15,H  17)   -170.9828         0.000000   
    108. D(H  24,N  21,C  15,C  14)     71.1477         0.000000   
    109. D(H  23,N  21,C  15,H  18)   -162.6404         0.000000   
    110. D(H  23,N  21,C  15,H  17)     76.8637         0.000000   
    111. D(H  23,N  21,C  15,C  14)    -41.0057         0.000000   
    112. D(H  22,N  21,C  15,H  18)     75.0483         0.000000   
    113. D(H  22,N  21,C  15,H  17)    -45.4476         0.000000   
    114. D(H  22,N  21,C  15,C  14)   -163.3170         0.000000   
    -----------------------------------------------------------------

Number of atoms                         .... 25
Number of degrees of freedom            .... 114

         *************************************************************
         *                GEOMETRY OPTIMIZATION CYCLE   1            *
         *************************************************************
---------------------------------
CARTESIAN COORDINATES (ANGSTROEM)
---------------------------------
  N      0.604597    1.924960    2.313915
  H      1.258015    2.274160    1.612187
  C      1.002499    1.832391    3.703266
  C      1.115793    0.408486    4.240040
  H      1.979908    2.328686    3.828435
  H      0.280471    2.334824    4.367326
  O      0.892011    0.065215    5.366192
  C     -0.560622    1.327386    1.910864
  C     -0.730956    1.224361    0.380266
  O     -1.324266    0.777752    2.694803
  N      0.000000    0.000000    0.000000
  H     -0.304768    2.077093   -0.168953
  H     -1.792457    1.101767    0.131068
  H     -0.492065   -0.884927    0.129442
  C      1.343116    0.000000    0.000000
  C      2.075815   -1.348215    0.125824
  O      2.052962    1.017998    0.000000
  H      2.483909   -1.680245   -0.842189
  H      1.479351   -2.151426    0.581575
  O      1.576786   -0.540715    3.298373
  H      1.506892   -1.381673    3.805919
  N      3.218777   -0.990993    1.033598
  H      3.991927   -1.671103    1.044006
  H      3.530185   -0.051248    0.683339
  H      2.838468   -0.823800    2.003861

----------------------------
CARTESIAN COORDINATES (A.U.)
----------------------------
  NO LB      ZA    FRAG     MASS         X           Y           Z
   0 N     7.0000    0    14.007    1.142523    3.637647    4.372666
   1 H     1.0000    0     1.008    2.377304    4.297540    3.046592
   2 C     6.0000    0    12.011    1.894449    3.462717    6.998159
   3 C     6.0000    0    12.011    2.108543    0.771927    8.012514
   4 H     1.0000    0     1.008    3.741484    4.400579    7.234694
   5 H     1.0000    0     1.008    0.530013    4.412178    8.253050
   6 O     8.0000    0    15.999    1.685656    0.123238   10.140633
   7 C     6.0000    0    12.011   -1.059422    2.508396    3.611010
   8 C     6.0000    0    12.011   -1.381307    2.313707    0.718599
   9 O     8.0000    0    15.999   -2.502500    1.469738    5.092440
  10 N     7.0000    0    14.007    0.000000    0.000000    0.000000
  11 H     1.0000    0     1.008   -0.575928    3.925137   -0.319275
  12 H     1.0000    0     1.008   -3.387253    2.082038    0.247683
  13 H     1.0000    0     1.008   -0.929868   -1.672270    0.244610
  14 C     6.0000    0    12.011    2.538121    0.000000    0.000000
  15 C     6.0000    0    12.011    3.922722   -2.547757    0.237773
  16 O     8.0000    0    15.999    3.879536    1.923737    0.000000
  17 H     1.0000    0     1.008    4.693908   -3.175203   -1.591507
  18 H     1.0000    0     1.008    2.795568   -4.065606    1.099017
  19 O     8.0000    0    15.999    2.979694   -1.021803    6.233022
  20 H     1.0000    0     1.008    2.847613   -2.610984    7.192145
  21 N     7.0000    0    14.007    6.082607   -1.872705    1.953217
  22 H     1.0000    0     1.008    7.543649   -3.157927    1.972885
  23 H     1.0000    0     1.008    6.671083   -0.096845    1.291324
  24 H     1.0000    0     1.008    5.363927   -1.556756    3.786749

--------------------------------
INTERNAL COORDINATES (ANGSTROEM)
--------------------------------
 N      0   0   0     0.000000000000     0.00000000     0.00000000
 H      1   0   0     1.020449856048     0.00000000     0.00000000
 C      1   2   0     1.448168230064   120.37604993     0.00000000
 C      3   1   2     1.525931619221   114.67864966   247.29810183
 H      3   1   2     1.103315167514   108.87439590     8.78923082
 H      3   1   2     1.102152002163   111.64796609   127.78101539
 O      4   3   1     1.198387120287   125.73182319   212.11843069
 C      1   2   3     1.370138719998   119.44021518   191.37751964
 C      8   1   2     1.543488924413   114.49880230     1.37771435
 O      8   1   2     1.224667321526   122.52926138   172.98297422
 N      9   8   1     1.475790894068   104.84673244    84.13767002
 H      9   8   1     1.100195248640   113.61244951   325.44971130
 H      9   8   1     1.097229832369   109.84273080   201.28986469
 H     11   9   8     1.020773721702   116.60186378    81.38772786
 C     11   9   8     1.343116000000   119.68939028   286.41285859
 C     15  11   9     1.539598385879   118.41813980   157.41431890
 O     15  11   9     1.241048456637   124.88791220   342.74608175
 H     16  15  11     1.101741259055   111.61567250   103.80428093
 H     16  15  11     1.099375362566   114.54869013   337.71943949
 O      4   3   1     1.414296228991   114.59865107    34.59466016
 H     20   4   3     0.984732690183   101.93771029   184.50714487
 N     16  15  11     1.502672061963   101.72286610   219.55856647
 H     22  16  15     1.029766410922   114.84562103   196.68299390
 H     22  16  15     1.050131884370   103.69766725   318.99426267
 H     22  16  15     1.055461379634   108.59818606    71.14772252

---------------------------
INTERNAL COORDINATES (A.U.)
---------------------------
 N      0   0   0     0.000000000000     0.00000000     0.00000000
 H      1   0   0     1.928370761330     0.00000000     0.00000000
 C      1   2   0     2.736641350666   120.37604993     0.00000000
 C      3   1   2     2.883592859418   114.67864966   247.29810183
 H      3   1   2     2.084963506003   108.87439590     8.78923082
 H      3   1   2     2.082765442042   111.64796609   127.78101539
 O      4   3   1     2.264623459760   125.73182319   212.11843069
 C      1   2   3     2.589186946278   119.44021518   191.37751964
 C      8   1   2     2.916771357881   114.49880230     1.37771435
 O      8   1   2     2.314285842847   122.52926138   172.98297422
 N      9   8   1     2.788840620723   104.84673244    84.13767002
 H      9   8   1     2.079067713770   113.61244951   325.44971130
 H      9   8   1     2.073463889146   109.84273080   201.28986469
 H     11   9   8     1.928982778721   116.60186378    81.38772786
 C     11   9   8     2.538121406088   119.68939028   286.41285859
 C     15  11   9     2.909419305539   118.41813980   157.41431890
 O     15  11   9     2.345241701969   124.88791220   342.74608175
 H     16  15  11     2.081989250056   111.61567250   103.80428093
 H     16  15  11     2.077518353631   114.54869013   337.71943949
 O      4   3   1     2.672632545031   114.59865107    34.59466016
 H     20   4   3     1.860875099566   101.93771029   184.50714487
 N     16  15  11     2.839638666205   101.72286610   219.55856647
 H     22  16  15     1.945976498554   114.84562103   196.68299390
 H     22  16  15     1.984461665958   103.69766725   318.99426267
 H     22  16  15     1.994532952439   108.59818606    71.14772252

---------------------
BASIS SET INFORMATION
---------------------
There are 4 groups of distinct atoms

 Group   1 Type N   : 11s6p2d1f contracted to 5s3p2d1f pattern {62111/411/11/1}
 Group   2 Type H   : 5s2p1d contracted to 3s2p1d pattern {311/11/1}
 Group   3 Type C   : 11s6p2d1f contracted to 5s3p2d1f pattern {62111/411/11/1}
 Group   4 Type O   : 11s6p2d1f contracted to 5s3p2d1f pattern {62111/411/11/1}

Atom   0N    basis set group =>   1
Atom   1H    basis set group =>   2
Atom   2C    basis set group =>   3
Atom   3C    basis set group =>   3
Atom   4H    basis set group =>   2
Atom   5H    basis set group =>   2
Atom   6O    basis set group =>   4
Atom   7C    basis set group =>   3
Atom   8C    basis set group =>   3
Atom   9O    basis set group =>   4
Atom  10N    basis set group =>   1
Atom  11H    basis set group =>   2
Atom  12H    basis set group =>   2
Atom  13H    basis set group =>   2
Atom  14C    basis set group =>   3
Atom  15C    basis set group =>   3
Atom  16O    basis set group =>   4
Atom  17H    basis set group =>   2
Atom  18H    basis set group =>   2
Atom  19O    basis set group =>   4
Atom  20H    basis set group =>   2
Atom  21N    basis set group =>   1
Atom  22H    basis set group =>   2
Atom  23H    basis set group =>   2
Atom  24H    basis set group =>   2
---------------------------------
AUXILIARY/J BASIS SET INFORMATION
---------------------------------
There are 4 groups of distinct atoms

 Group   1 Type N   : 12s5p4d2f1g contracted to 6s4p3d1f1g pattern {711111/2111/211/2/1}
 Group   2 Type H   : 5s2p1d contracted to 3s1p1d pattern {311/2/1}
 Group   3 Type C   : 12s5p4d2f1g contracted to 6s4p3d1f1g pattern {711111/2111/211/2/1}
 Group   4 Type O   : 12s5p4d2f1g contracted to 6s4p3d1f1g pattern {711111/2111/211/2/1}

Atom   0N    basis set group =>   1
Atom   1H    basis set group =>   2
Atom   2C    basis set group =>   3
Atom   3C    basis set group =>   3
Atom   4H    basis set group =>   2
Atom   5H    basis set group =>   2
Atom   6O    basis set group =>   4
Atom   7C    basis set group =>   3
Atom   8C    basis set group =>   3
Atom   9O    basis set group =>   4
Atom  10N    basis set group =>   1
Atom  11H    basis set group =>   2
Atom  12H    basis set group =>   2
Atom  13H    basis set group =>   2
Atom  14C    basis set group =>   3
Atom  15C    basis set group =>   3
Atom  16O    basis set group =>   4
Atom  17H    basis set group =>   2
Atom  18H    basis set group =>   2
Atom  19O    basis set group =>   4
Atom  20H    basis set group =>   2
Atom  21N    basis set group =>   1
Atom  22H    basis set group =>   2
Atom  23H    basis set group =>   2
Atom  24H    basis set group =>   2


           ************************************************************
           *        Program running with 8 parallel MPI-processes     *
           *              working on a common directory               *
           ************************************************************
------------------------------------------------------------------------------
                           ORCA GTO INTEGRAL CALCULATION
                           -- RI-GTO INTEGRALS CHOSEN --
------------------------------------------------------------------------------
------------------------------------------------------------------------------
                   ___                                                        
                  /   \      - P O W E R E D   B Y -                         
                 /     \                                                     
                 |  |  |   _    _      __       _____    __    __             
                 |  |  |  | |  | |    /  \     |  _  \  |  |  /  |          
                  \  \/   | |  | |   /    \    | | | |  |  | /  /          
                 / \  \   | |__| |  /  /\  \   | |_| |  |  |/  /          
                |  |  |   |  __  | /  /__\  \  |    /   |      \           
                |  |  |   | |  | | |   __   |  |    \   |  |\   \          
                \     /   | |  | | |  |  |  |  | |\  \  |  | \   \       
                 \___/    |_|  |_| |__|  |__|  |_| \__\ |__|  \__/        
                                                                              
                      - O R C A' S   B I G   F R I E N D -                    
                                      &                                       
                       - I N T E G R A L  F E E D E R -                       
                                                                              
 v1 FN, 2020, v2 2021                                                         
------------------------------------------------------------------------------


Reading SHARK input file GGG-H_tt_029_OptFreq.SHARKINP.tmp ... ok
----------------------
SHARK INTEGRAL PACKAGE
----------------------

Number of atoms                             ...     25
Number of basis functions                   ...    571
Number of shells                            ...    215
Maximum angular momentum                    ...      3
Integral batch strategy                     ... SHARK/LIBINT Hybrid
RI-J (if used) integral strategy            ... SPLIT-RIJ (Revised 2003 algorithm where possible)
Printlevel                                  ...      1
Contraction scheme used                     ... SEGMENTED contraction
Coulomb Range Separation                    ... NOT USED
Exchange Range Separation                   ... Long Range
   Mu parameter                             ...  0.300000
   Scaling (regular/separated)              ...  0.167000  0.833000
Finite Nucleus Model                        ... NOT USED
Auxiliary Coulomb fitting basis             ... AVAILABLE
   # of basis functions in Aux-J            ...    769
   # of shells in Aux-J                     ...    255
   Maximum angular momentum in Aux-J        ...      4
Auxiliary J/K fitting basis                 ... NOT available
Auxiliary Correlation fitting basis         ... NOT available
Auxiliary 'external' fitting basis          ... NOT available
Integral threshold                          ...     1.000000e-12
Primitive cut-off                           ...     1.000000e-14
Primitive pair pre-selection threshold      ...     1.000000e-14

Calculating pre-screening integrals         ... done (  0.1 sec) Dimension = 215
Organizing shell pair data                  ... done (  0.2 sec)
Shell pair information
Total number of shell pairs                 ...     23220
Shell pairs after pre-screening             ...     20222
Total number of primitive shell pairs       ...     63868
Primitive shell pairs kept                  ...     40610
          la=0 lb=0:   4367 shell pairs
          la=1 lb=0:   5661 shell pairs
          la=1 lb=1:   1873 shell pairs
          la=2 lb=0:   3209 shell pairs
          la=2 lb=1:   2125 shell pairs
          la=2 lb=2:    615 shell pairs
          la=3 lb=0:   1104 shell pairs
          la=3 lb=1:    749 shell pairs
          la=3 lb=2:    436 shell pairs
          la=3 lb=3:     83 shell pairs

Calculating one electron integrals          ... done (  0.0 sec)
Calculating RI/J V-Matrix + Cholesky decomp.... done (  0.6 sec)
Calculating Nuclear repulsion               ... done (  0.0 sec) ENN=    893.805655917091 Eh

SHARK setup successfully completed in   1.6 seconds

Maximum memory used throughout the entire GTOINT-calculation: 31.9 MB


           ************************************************************
           *        Program running with 8 parallel MPI-processes     *
           *              working on a common directory               *
           ************************************************************
-------------------------------------------------------------------------------
                                 ORCA SCF
-------------------------------------------------------------------------------

------------
SCF SETTINGS
------------
Hamiltonian:
 Density Functional     Method          .... DFT(GTOs)
 Exchange Functional    Exchange        .... WB97X-V
 Correlation Functional Correlation     .... WB97X-V
 Gradients option       PostSCFGGA      .... off
 Hybrid DFT is turned on
   Fraction HF Exchange ScalHFX         ....  0.167000
   Scaling of DF-GGA-X  ScalDFX         ....  0.000000
   Scaling of DF-GGA-C  ScalDFC         ....  1.000000
   Scaling of DF-LDA-C  ScalLDAC        ....  1.000000
   Perturbative correction              ....  0.000000
   Density functional embedding theory  .... OFF
 Long-range corrected/Screened/Range-Separated Hybrid DFT is turned on
   Amount of maximum screened exact exchange              ....  0.833000
   Range separation parameter mu (erf(mu*r12)/r12)        ....  0.300000
 RI-approximation to the Coulomb term is turned on
   Number of AuxJ basis functions       .... 769
   RIJ-COSX (HFX calculated with COS-X)).... on


General Settings:
 Integral files         IntName         .... GGG-H_tt_029_OptFreq
 Hartree-Fock type      HFTyp           .... RHF
 Total Charge           Charge          ....    1
 Multiplicity           Mult            ....    1
 Number of Electrons    NEL             ....  100
 Basis Dimension        Dim             ....  571
 Nuclear Repulsion      ENuc            ....    893.8056559171 Eh

Convergence Acceleration:
 DIIS                   CNVDIIS         .... on
   Start iteration      DIISMaxIt       ....    12
   Startup error        DIISStart       ....  0.200000
   # of expansion vecs  DIISMaxEq       ....     5
   Bias factor          DIISBfac        ....   1.050
   Max. coefficient     DIISMaxC        ....  10.000
 Trust-Rad. Augm. Hess. CNVTRAH         .... auto
   Auto Start mean grad. ratio tolernc. ....  1.125000
   Auto Start start iteration           ....    20
   Auto Start num. interpolation iter.  ....    10
   Max. Number of Micro iterations      ....    16
   Max. Number of Macro iterations      .... Maxiter - #DIIS iter
   Number of Davidson start vectors     ....     2
   Converg. threshold I  (grad. norm)   ....   2.000e-06
   Converg. threshold II (energy diff.) ....   1.000e-09
   Grad. Scal. Fac. for Micro threshold ....   0.100
   Minimum threshold for Micro iter.    ....   0.010
   NR start threshold (gradient norm)   ....   0.001
   Initial trust radius                 ....   0.400
   Minimum AH scaling param. (alpha)    ....   1.000
   Maximum AH scaling param. (alpha)    .... 1000.000
   Orbital update algorithm             .... Taylor
   White noise on init. David. guess    .... on
   Maximum white noise                  ....   0.010
   Quad. conv. algorithm                .... NR
 SOSCF                  CNVSOSCF        .... on
   Start iteration      SOSCFMaxIt      ....   150
   Startup grad/error   SOSCFStart      ....  0.003300
 Level Shifting         CNVShift        .... on
   Level shift para.    LevelShift      ....    0.2500
   Turn off err/grad.   ShiftErr        ....    0.0010
 Zerner damping         CNVZerner       .... off
 Static damping         CNVDamp         .... on
   Fraction old density DampFac         ....    0.7000
   Max. Damping (<1)    DampMax         ....    0.9800
   Min. Damping (>=0)   DampMin         ....    0.0000
   Turn off err/grad.   DampErr         ....    0.1000
 Fernandez-Rico         CNVRico         .... off

SCF Procedure:
 Maximum # iterations   MaxIter         ....   125
 SCF integral mode      SCFMode         .... Direct
   Integral package                     .... SHARK and LIBINT hybrid scheme
 Reset frequency        DirectResetFreq ....    20
 Integral Threshold     Thresh          ....  1.000e-12 Eh
 Primitive CutOff       TCut            ....  1.000e-14 Eh

Convergence Tolerance:
 Convergence Check Mode ConvCheckMode   .... Total+1el-Energy
 Convergence forced     ConvForced      .... 0
 Energy Change          TolE            ....  1.000e-09 Eh
 1-El. energy change                    ....  1.000e-06 Eh
 Orbital Gradient       TolG            ....  2.000e-06
 Orbital Rotation angle TolX            ....  2.000e-06
 DIIS Error             TolErr          ....  1.000e-08


Diagonalization of the overlap matrix:
Smallest eigenvalue                        ... 1.306e-04
Time for diagonalization                   ...    0.051 sec
Threshold for overlap eigenvalues          ... 1.000e-08
Number of eigenvalues below threshold      ... 0
Time for construction of square roots      ...    0.068 sec
Total time needed                          ...    0.121 sec

Time for model grid setup =    0.200 sec

------------------------------
INITIAL GUESS: MODEL POTENTIAL
------------------------------
Loading Hartree-Fock densities                     ... done
Calculating cut-offs                               ... done
Initializing the effective Hamiltonian             ... done
Setting up the integral package (SHARK)            ... done
Starting the Coulomb interaction                   ... done (   0.4 sec)
Reading the grid                                   ... done
Mapping shells                                     ... done
Starting the XC term evaluation                    ... done (   0.1 sec)
  promolecular density results
     # of electrons  =    100.989024777
     EX              =    -58.957093888
     EC              =     -4.267712020
     EX+EC           =    -63.224805908
Transforming the Hamiltonian                       ... done (   0.0 sec)
Diagonalizing the Hamiltonian                      ... done (   0.0 sec)
Back transforming the eigenvectors                 ... done (   0.0 sec)
Now organizing SCF variables                       ... done
                      ------------------
                      INITIAL GUESS DONE (   0.8 sec)
                      ------------------
-------------------
DFT GRID GENERATION
-------------------

General Integration Accuracy     IntAcc      ... 4.959
Radial Grid Type                 RadialGrid  ... OptM3 with GC (2021)
Angular Grid (max. ang.)         AngularGrid ... 6 (Lebedev-590)
Angular grid pruning method      GridPruning ... 4 (adaptive)
Weight generation scheme         WeightScheme... Becke
Basis function cutoff            BFCut       ... 1.0000e-12
Integration weight cutoff        WCut        ... 1.0000e-14
Angular grids for H and He will be reduced by one unit
Partially contracted basis set               ... off
Rotationally invariant grid construction     ... off

Total number of grid points                  ...   288373
Total number of batches                      ...     4520
Average number of points per batch           ...       63
Average number of grid points per atom       ...    11535
Time for grid setup =    3.212 sec

--------------------
COSX GRID GENERATION
--------------------

GRIDX 1
-------
General Integration Accuracy     IntAcc      ... 4.020
Radial Grid Type                 RadialGrid  ... OptM3 with GC (2021)
Angular Grid (max. ang.)         AngularGrid ... 2 (Lebedev-110)
Angular grid pruning method      GridPruning ... 4 (adaptive)
Weight generation scheme         WeightScheme... Becke
Basis function cutoff            BFCut       ... 1.0000e-12
Integration weight cutoff        WCut        ... 1.0000e-14
Angular grids for H and He will be reduced by one unit
Partially contracted basis set               ... on
Rotationally invariant grid construction     ... off

Total number of grid points                  ...    32057
Total number of batches                      ...      513
Average number of points per batch           ...       62
Average number of grid points per atom       ...     1282
UseSFitting                                  ... on

GRIDX 2
-------
General Integration Accuracy     IntAcc      ... 4.338
Radial Grid Type                 RadialGrid  ... OptM3 with GC (2021)
Angular Grid (max. ang.)         AngularGrid ... 3 (Lebedev-194)
Angular grid pruning method      GridPruning ... 4 (adaptive)
Weight generation scheme         WeightScheme... Becke
Basis function cutoff            BFCut       ... 1.0000e-12
Integration weight cutoff        WCut        ... 1.0000e-14
Angular grids for H and He will be reduced by one unit
Partially contracted basis set               ... on
Rotationally invariant grid construction     ... off

Total number of grid points                  ...    70179
Total number of batches                      ...     1108
Average number of points per batch           ...       63
Average number of grid points per atom       ...     2807
UseSFitting                                  ... on

GRIDX 3
-------
General Integration Accuracy     IntAcc      ... 4.871
Radial Grid Type                 RadialGrid  ... OptM3 with GC (2021)
Angular Grid (max. ang.)         AngularGrid ... 4 (Lebedev-302)
Angular grid pruning method      GridPruning ... 4 (adaptive)
Weight generation scheme         WeightScheme... Becke
Basis function cutoff            BFCut       ... 1.0000e-12
Integration weight cutoff        WCut        ... 1.0000e-14
Angular grids for H and He will be reduced by one unit
Partially contracted basis set               ... on
Rotationally invariant grid construction     ... off

Total number of grid points                  ...   132840
Total number of batches                      ...     2089
Average number of points per batch           ...       63
Average number of grid points per atom       ...     5314
UseSFitting                                  ... on

Time for X-Grid setup             =    1.868 sec

--------------
SCF ITERATIONS
--------------
ITER       Energy         Delta-E        Max-DP      RMS-DP      [F,P]     Damp
               ***  Starting incremental Fock matrix formation  ***
  0   -701.1333180794   0.000000000000 0.02620270  0.00046672  0.3448943 0.7000
  1   -701.1865660776  -0.053247998234 0.02916129  0.00041747  0.2345347 0.7000
                               ***Turning on DIIS***
  2   -701.2164561509  -0.029890073325 0.02794101  0.00032231  0.1632340 0.7000
  3   -701.2361242139  -0.019668062957 0.02593268  0.00025792  0.1123520 0.7000
  4   -701.2500094571  -0.013885243236 0.06800462  0.00068276  0.0774943 0.0000
                      *** Initiating the SOSCF procedure ***
                           *** Shutting down DIIS ***
                      *** Re-Reading the Fockian *** 
                      *** Removing any level shift *** 
ITER      Energy       Delta-E        Grad      Rot      Max-DP    RMS-DP
  5   -701.28364976  -0.0336403012  0.001669  0.001669  0.007393  0.000072
               *** Restarting incremental Fock matrix formation ***
  6   -701.28381203  -0.0001622675  0.000963  0.002189  0.004715  0.000044
  7   -701.28386234  -0.0000503099  0.000671  0.002097  0.003569  0.000035
  8   -701.28387294  -0.0000105995  0.000461  0.000644  0.000908  0.000011
  9   -701.28387683  -0.0000038973  0.000120  0.000115  0.000654  0.000006
 10   -701.28387716  -0.0000003285  0.000039  0.000092  0.000220  0.000002
 11   -701.28387736  -0.0000002012  0.000008  0.000025  0.000020  0.000000
 12   -701.28387737  -0.0000000046  0.000005  0.000008  0.000022  0.000000
 13   -701.28387737  -0.0000000033  0.000002  0.000005  0.000009  0.000000
 14   -701.28387737   0.0000000001  0.000002  0.000003  0.000002  0.000000
                  ***Gradient check signals convergence***
              ***Rediagonalizing the Fockian in SOSCF/NRSCF***

               *****************************************************
               *                     SUCCESS                       *
               *           SCF CONVERGED AFTER  15 CYCLES          *
               *****************************************************

Old exchange energy                            =    -27.826040155 Eh
New exchange energy                            =    -27.826035511 Eh
Exchange energy change after final integration =      0.000004644 Eh
Total energy after final integration           =   -701.283872726 Eh
Final COS-X integration done in                =    32.660 sec

----------------
TOTAL SCF ENERGY
----------------

Total Energy       :         -701.28387273 Eh          -19082.90433 eV

Components:
Nuclear Repulsion  :          893.80565592 Eh           24321.68839 eV
Electronic Energy  :        -1595.08952864 Eh          -43404.59272 eV
One Electron Energy:        -2715.48126726 Eh          -73892.00188 eV
Two Electron Energy:         1120.39173862 Eh           30487.40916 eV
Max COSX asymmetry :            0.00000068 Eh               0.00002 eV

Virial components:
Potential Energy   :        -1399.22948691 Eh          -38074.97003 eV
Kinetic Energy     :          697.94561418 Eh           18992.06570 eV
Virial Ratio       :            2.00478298


DFT components:
N(Alpha)           :       49.999995546870 electrons
N(Beta)            :       49.999995546870 electrons
N(Total)           :       99.999991093741 electrons
E(X)               :      -60.034015083999 Eh       
E(C)               :       -4.264949865447 Eh       
E(XC)              :      -64.298964949446 Eh       
DFET-embed. en.    :        0.000000000000 Eh       

---------------
SCF CONVERGENCE
---------------

  Last Energy change         ...   -3.5584e-11  Tolerance :   1.0000e-09
  Last MAX-Density change    ...    1.5543e-15  Tolerance :   1.0000e-08
  Last RMS-Density change    ...    1.2888e-17  Tolerance :   1.0000e-09
  Last Orbital Gradient      ...    4.0260e-07  Tolerance :   2.0000e-06
  Last Orbital Rotation      ...    1.0020e-06  Tolerance :   2.0000e-06

             **** THE GBW FILE WAS UPDATED (GGG-H_tt_029_OptFreq.gbw) ****
             **** DENSITY GGG-H_tt_029_OptFreq.scfp WAS UPDATED ****
             **** ENERGY FILE WAS UPDATED (GGG-H_tt_029_OptFreq.en.tmp) ****
             **** THE GBW FILE WAS UPDATED (GGG-H_tt_029_OptFreq.gbw) ****
             **** DENSITY GGG-H_tt_029_OptFreq.scfp WAS UPDATED ****
----------------
ORBITAL ENERGIES
----------------

  NO   OCC          E(Eh)            E(eV) 
   0   2.0000     -19.420151      -528.4492 
   1   2.0000     -19.369406      -527.0683 
   2   2.0000     -19.348947      -526.5116 
   3   2.0000     -19.317361      -525.6521 
   4   2.0000     -14.711963      -400.3329 
   5   2.0000     -14.621467      -397.8703 
   6   2.0000     -14.577532      -396.6748 
   7   2.0000     -10.569033      -287.5980 
   8   2.0000     -10.554100      -287.1917 
   9   2.0000     -10.531732      -286.5830 
  10   2.0000     -10.515506      -286.1415 
  11   2.0000     -10.468836      -284.8715 
  12   2.0000     -10.464613      -284.7566 
  13   2.0000      -1.381980       -37.6056 
  14   2.0000      -1.365803       -37.1654 
  15   2.0000      -1.310302       -35.6551 
  16   2.0000      -1.303952       -35.4823 
  17   2.0000      -1.292491       -35.1705 
  18   2.0000      -1.236173       -33.6380 
  19   2.0000      -1.196187       -32.5499 
  20   2.0000      -1.069937       -29.1145 
  21   2.0000      -1.027312       -27.9546 
  22   2.0000      -0.987376       -26.8679 
  23   2.0000      -0.899721       -24.4827 
  24   2.0000      -0.892236       -24.2790 
  25   2.0000      -0.886735       -24.1293 
  26   2.0000      -0.867160       -23.5966 
  27   2.0000      -0.842415       -22.9233 
  28   2.0000      -0.814339       -22.1593 
  29   2.0000      -0.793170       -21.5833 
  30   2.0000      -0.782518       -21.2934 
  31   2.0000      -0.761132       -20.7115 
  32   2.0000      -0.752138       -20.4667 
  33   2.0000      -0.742926       -20.2161 
  34   2.0000      -0.740669       -20.1546 
  35   2.0000      -0.712935       -19.3999 
  36   2.0000      -0.699391       -19.0314 
  37   2.0000      -0.697369       -18.9764 
  38   2.0000      -0.681541       -18.5457 
  39   2.0000      -0.670655       -18.2494 
  40   2.0000      -0.656829       -17.8732 
  41   2.0000      -0.654480       -17.8093 
  42   2.0000      -0.642161       -17.4741 
  43   2.0000      -0.621421       -16.9097 
  44   2.0000      -0.583609       -15.8808 
  45   2.0000      -0.566056       -15.4032 
  46   2.0000      -0.553145       -15.0518 
  47   2.0000      -0.538689       -14.6585 
  48   2.0000      -0.500654       -13.6235 
  49   2.0000      -0.494802       -13.4643 
  50   0.0000      -0.100056        -2.7227 
  51   0.0000      -0.079721        -2.1693 
  52   0.0000      -0.054240        -1.4759 
  53   0.0000      -0.041505        -1.1294 
  54   0.0000      -0.034761        -0.9459 
  55   0.0000      -0.023819        -0.6481 
  56   0.0000      -0.011033        -0.3002 
  57   0.0000       0.002118         0.0576 
  58   0.0000       0.011547         0.3142 
  59   0.0000       0.018458         0.5023 
  60   0.0000       0.028030         0.7627 
  61   0.0000       0.048706         1.3254 
  62   0.0000       0.057392         1.5617 
  63   0.0000       0.061324         1.6687 
  64   0.0000       0.065741         1.7889 
  65   0.0000       0.069608         1.8941 
  66   0.0000       0.072113         1.9623 
  67   0.0000       0.095497         2.5986 
  68   0.0000       0.099123         2.6973 
  69   0.0000       0.106038         2.8854 
  70   0.0000       0.115335         3.1384 
  71   0.0000       0.126685         3.4473 
  72   0.0000       0.135907         3.6982 
  73   0.0000       0.139160         3.7867 
  74   0.0000       0.147059         4.0017 
  75   0.0000       0.162782         4.4295 
  76   0.0000       0.172030         4.6812 
  77   0.0000       0.174604         4.7512 
  78   0.0000       0.190991         5.1971 
  79   0.0000       0.210373         5.7246 
  80   0.0000       0.212749         5.7892 
  81   0.0000       0.226361         6.1596 
  82   0.0000       0.231212         6.2916 
  83   0.0000       0.237364         6.4590 
  84   0.0000       0.242944         6.6108 
  85   0.0000       0.263549         7.1715 
  86   0.0000       0.268298         7.3007 
  87   0.0000       0.276902         7.5349 
  88   0.0000       0.283010         7.7011 
  89   0.0000       0.297570         8.0973 
  90   0.0000       0.302316         8.2264 
  91   0.0000       0.304589         8.2883 
  92   0.0000       0.314415         8.5557 
  93   0.0000       0.322628         8.7792 
  94   0.0000       0.326381         8.8813 
  95   0.0000       0.331474         9.0199 
  96   0.0000       0.331842         9.0299 
  97   0.0000       0.343428         9.3451 
  98   0.0000       0.350320         9.5327 
  99   0.0000       0.357762         9.7352 
 100   0.0000       0.364948         9.9307 
 101   0.0000       0.368460        10.0263 
 102   0.0000       0.370463        10.0808 
 103   0.0000       0.381218        10.3735 
 104   0.0000       0.395382        10.7589 
 105   0.0000       0.398734        10.8501 
 106   0.0000       0.400555        10.8997 
 107   0.0000       0.407262        11.0822 
 108   0.0000       0.417088        11.3495 
 109   0.0000       0.422187        11.4883 
 110   0.0000       0.423471        11.5232 
 111   0.0000       0.431713        11.7475 
 112   0.0000       0.447578        12.1792 
 113   0.0000       0.458328        12.4718 
 114   0.0000       0.467717        12.7272 
 115   0.0000       0.473535        12.8856 
 116   0.0000       0.489788        13.3278 
 117   0.0000       0.495477        13.4826 
 118   0.0000       0.514416        13.9980 
 119   0.0000       0.517243        14.0749 
 120   0.0000       0.530071        14.4240 
 121   0.0000       0.548165        14.9163 
 122   0.0000       0.559482        15.2243 
 123   0.0000       0.563127        15.3235 
 124   0.0000       0.570100        15.5132 
 125   0.0000       0.581685        15.8285 
 126   0.0000       0.585993        15.9457 
 127   0.0000       0.595166        16.1953 
 128   0.0000       0.602612        16.3979 
 129   0.0000       0.609268        16.5790 
 130   0.0000       0.627324        17.0704 
 131   0.0000       0.643736        17.5170 
 132   0.0000       0.657592        17.8940 
 133   0.0000       0.670837        18.2544 
 134   0.0000       0.683845        18.6084 
 135   0.0000       0.696008        18.9393 
 136   0.0000       0.706583        19.2271 
 137   0.0000       0.714585        19.4448 
 138   0.0000       0.723883        19.6978 
 139   0.0000       0.741693        20.1825 
 140   0.0000       0.761941        20.7335 
 141   0.0000       0.771131        20.9835 
 142   0.0000       0.780095        21.2275 
 143   0.0000       0.786580        21.4039 
 144   0.0000       0.794857        21.6292 
 145   0.0000       0.799345        21.7513 
 146   0.0000       0.813789        22.1443 
 147   0.0000       0.832352        22.6495 
 148   0.0000       0.842708        22.9313 
 149   0.0000       0.861677        23.4474 
 150   0.0000       0.862479        23.4692 
 151   0.0000       0.871439        23.7131 
 152   0.0000       0.872234        23.7347 
 153   0.0000       0.879079        23.9209 
 154   0.0000       0.894916        24.3519 
 155   0.0000       0.899998        24.4902 
 156   0.0000       0.907071        24.6827 
 157   0.0000       0.925286        25.1783 
 158   0.0000       0.944623        25.7045 
 159   0.0000       0.953249        25.9392 
 160   0.0000       0.967507        26.3272 
 161   0.0000       0.970638        26.4124 
 162   0.0000       0.979150        26.6440 
 163   0.0000       0.990362        26.9491 
 164   0.0000       0.998324        27.1658 
 165   0.0000       1.004471        27.3331 
 166   0.0000       1.007549        27.4168 
 167   0.0000       1.031145        28.0589 
 168   0.0000       1.042639        28.3717 
 169   0.0000       1.043750        28.4019 
 170   0.0000       1.057029        28.7632 
 171   0.0000       1.066254        29.0143 
 172   0.0000       1.083707        29.4892 
 173   0.0000       1.094797        29.7909 
 174   0.0000       1.106763        30.1166 
 175   0.0000       1.111656        30.2497 
 176   0.0000       1.123625        30.5754 
 177   0.0000       1.129179        30.7265 
 178   0.0000       1.133968        30.8568 
 179   0.0000       1.147447        31.2236 
 180   0.0000       1.156966        31.4826 
 181   0.0000       1.169361        31.8199 
 182   0.0000       1.175698        31.9924 
 183   0.0000       1.192193        32.4412 
 184   0.0000       1.202604        32.7245 
 185   0.0000       1.206185        32.8220 
 186   0.0000       1.223482        33.2926 
 187   0.0000       1.235754        33.6266 
 188   0.0000       1.245254        33.8851 
 189   0.0000       1.260293        34.2943 
 190   0.0000       1.269364        34.5412 
 191   0.0000       1.279068        34.8052 
 192   0.0000       1.296482        35.2791 
 193   0.0000       1.302194        35.4345 
 194   0.0000       1.317010        35.8377 
 195   0.0000       1.327997        36.1366 
 196   0.0000       1.342341        36.5270 
 197   0.0000       1.353761        36.8377 
 198   0.0000       1.366504        37.1845 
 199   0.0000       1.375602        37.4320 
 200   0.0000       1.379401        37.5354 
 201   0.0000       1.392988        37.9051 
 202   0.0000       1.413310        38.4581 
 203   0.0000       1.418932        38.6111 
 204   0.0000       1.425688        38.7949 
 205   0.0000       1.433055        38.9954 
 206   0.0000       1.447809        39.3969 
 207   0.0000       1.449750        39.4497 
 208   0.0000       1.472574        40.0708 
 209   0.0000       1.485711        40.4282 
 210   0.0000       1.492670        40.6176 
 211   0.0000       1.501018        40.8448 
 212   0.0000       1.521655        41.4063 
 213   0.0000       1.531842        41.6836 
 214   0.0000       1.539784        41.8997 
 215   0.0000       1.545452        42.0539 
 216   0.0000       1.556424        42.3524 
 217   0.0000       1.564464        42.5712 
 218   0.0000       1.589175        43.2436 
 219   0.0000       1.605258        43.6813 
 220   0.0000       1.605548        43.6892 
 221   0.0000       1.631505        44.3955 
 222   0.0000       1.641274        44.6613 
 223   0.0000       1.652971        44.9796 
 224   0.0000       1.670261        45.4501 
 225   0.0000       1.679021        45.6885 
 226   0.0000       1.711952        46.5846 
 227   0.0000       1.726319        46.9755 
 228   0.0000       1.734820        47.2069 
 229   0.0000       1.738082        47.2956 
 230   0.0000       1.766371        48.0654 
 231   0.0000       1.771075        48.1934 
 232   0.0000       1.814902        49.3860 
 233   0.0000       1.819560        49.5128 
 234   0.0000       1.838778        50.0357 
 235   0.0000       1.859126        50.5894 
 236   0.0000       1.870819        50.9076 
 237   0.0000       1.893854        51.5344 
 238   0.0000       1.910294        51.9817 
 239   0.0000       1.919925        52.2438 
 240   0.0000       1.946282        52.9610 
 241   0.0000       1.955737        53.2183 
 242   0.0000       1.974289        53.7231 
 243   0.0000       1.981299        53.9139 
 244   0.0000       2.005495        54.5723 
 245   0.0000       2.015763        54.8517 
 246   0.0000       2.033819        55.3430 
 247   0.0000       2.054166        55.8967 
 248   0.0000       2.059693        56.0471 
 249   0.0000       2.073721        56.4288 
 250   0.0000       2.105469        57.2927 
 251   0.0000       2.141157        58.2638 
 252   0.0000       2.148373        58.4602 
 253   0.0000       2.171013        59.0763 
 254   0.0000       2.210029        60.1380 
 255   0.0000       2.216128        60.3039 
 256   0.0000       2.228310        60.6354 
 257   0.0000       2.236810        60.8667 
 258   0.0000       2.262142        61.5560 
 259   0.0000       2.274146        61.8827 
 260   0.0000       2.299971        62.5854 
 261   0.0000       2.320830        63.1530 
 262   0.0000       2.342510        63.7429 
 263   0.0000       2.352454        64.0135 
 264   0.0000       2.368061        64.4382 
 265   0.0000       2.383001        64.8448 
 266   0.0000       2.411756        65.6272 
 267   0.0000       2.439539        66.3832 
 268   0.0000       2.452779        66.7435 
 269   0.0000       2.455421        66.8154 
 270   0.0000       2.485548        67.6352 
 271   0.0000       2.508839        68.2690 
 272   0.0000       2.514551        68.4244 
 273   0.0000       2.520048        68.5740 
 274   0.0000       2.528570        68.8059 
 275   0.0000       2.549332        69.3709 
 276   0.0000       2.563954        69.7687 
 277   0.0000       2.568636        69.8961 
 278   0.0000       2.580116        70.2085 
 279   0.0000       2.597833        70.6906 
 280   0.0000       2.601561        70.7921 
 281   0.0000       2.616739        71.2051 
 282   0.0000       2.621978        71.3476 
 283   0.0000       2.646253        72.0082 
 284   0.0000       2.665830        72.5409 
 285   0.0000       2.697547        73.4040 
 286   0.0000       2.706886        73.6581 
 287   0.0000       2.718774        73.9816 
 288   0.0000       2.739635        74.5493 
 289   0.0000       2.751045        74.8597 
 290   0.0000       2.757998        75.0489 
 291   0.0000       2.781529        75.6893 
 292   0.0000       2.788676        75.8837 
 293   0.0000       2.796132        76.0866 
 294   0.0000       2.804692        76.3195 
 295   0.0000       2.833990        77.1168 
 296   0.0000       2.838028        77.2267 
 297   0.0000       2.851772        77.6007 
 298   0.0000       2.862085        77.8813 
 299   0.0000       2.870839        78.1195 
 300   0.0000       2.878110        78.3174 
 301   0.0000       2.899244        78.8924 
 302   0.0000       2.921810        79.5065 
 303   0.0000       2.928228        79.6811 
 304   0.0000       2.937194        79.9251 
 305   0.0000       2.943193        80.0884 
 306   0.0000       2.949709        80.2657 
 307   0.0000       2.961117        80.5761 
 308   0.0000       2.975770        80.9748 
 309   0.0000       2.984604        81.2152 
 310   0.0000       3.000420        81.6456 
 311   0.0000       3.009640        81.8965 
 312   0.0000       3.022646        82.2504 
 313   0.0000       3.027984        82.3956 
 314   0.0000       3.034932        82.5847 
 315   0.0000       3.038877        82.6921 
 316   0.0000       3.050791        83.0162 
 317   0.0000       3.057179        83.1901 
 318   0.0000       3.067145        83.4613 
 319   0.0000       3.073008        83.6208 
 320   0.0000       3.083033        83.8936 
 321   0.0000       3.089510        84.0698 
 322   0.0000       3.096804        84.2683 
 323   0.0000       3.110126        84.6308 
 324   0.0000       3.123114        84.9842 
 325   0.0000       3.130539        85.1863 
 326   0.0000       3.147071        85.6362 
 327   0.0000       3.155946        85.8776 
 328   0.0000       3.159077        85.9629 
 329   0.0000       3.169820        86.2552 
 330   0.0000       3.181858        86.5828 
 331   0.0000       3.189006        86.7773 
 332   0.0000       3.206702        87.2588 
 333   0.0000       3.212113        87.4060 
 334   0.0000       3.224764        87.7503 
 335   0.0000       3.244662        88.2917 
 336   0.0000       3.250659        88.4549 
 337   0.0000       3.259099        88.6846 
 338   0.0000       3.273977        89.0894 
 339   0.0000       3.286657        89.4345 
 340   0.0000       3.288593        89.4872 
 341   0.0000       3.299696        89.7893 
 342   0.0000       3.311635        90.1142 
 343   0.0000       3.317885        90.2843 
 344   0.0000       3.332729        90.6882 
 345   0.0000       3.336541        90.7919 
 346   0.0000       3.353953        91.2657 
 347   0.0000       3.360962        91.4564 
 348   0.0000       3.372641        91.7742 
 349   0.0000       3.379383        91.9577 
 350   0.0000       3.388631        92.2094 
 351   0.0000       3.403848        92.6234 
 352   0.0000       3.406963        92.7082 
 353   0.0000       3.412756        92.8658 
 354   0.0000       3.435507        93.4849 
 355   0.0000       3.447625        93.8147 
 356   0.0000       3.452519        93.9478 
 357   0.0000       3.459741        94.1443 
 358   0.0000       3.473303        94.5134 
 359   0.0000       3.489623        94.9575 
 360   0.0000       3.495792        95.1253 
 361   0.0000       3.518720        95.7492 
 362   0.0000       3.528232        96.0081 
 363   0.0000       3.541263        96.3627 
 364   0.0000       3.556060        96.7653 
 365   0.0000       3.561987        96.9266 
 366   0.0000       3.579829        97.4121 
 367   0.0000       3.589381        97.6720 
 368   0.0000       3.600360        97.9708 
 369   0.0000       3.611626        98.2773 
 370   0.0000       3.624890        98.6383 
 371   0.0000       3.627947        98.7215 
 372   0.0000       3.651403        99.3597 
 373   0.0000       3.654089        99.4328 
 374   0.0000       3.670272        99.8732 
 375   0.0000       3.679637       100.1280 
 376   0.0000       3.702015       100.7370 
 377   0.0000       3.705366       100.8281 
 378   0.0000       3.711104       100.9843 
 379   0.0000       3.725900       101.3869 
 380   0.0000       3.732419       101.5643 
 381   0.0000       3.753359       102.1341 
 382   0.0000       3.761473       102.3549 
 383   0.0000       3.778882       102.8286 
 384   0.0000       3.789321       103.1127 
 385   0.0000       3.795696       103.2861 
 386   0.0000       3.811904       103.7272 
 387   0.0000       3.843755       104.5939 
 388   0.0000       3.851446       104.8032 
 389   0.0000       3.863670       105.1358 
 390   0.0000       3.875706       105.4633 
 391   0.0000       3.889071       105.8270 
 392   0.0000       3.906456       106.3001 
 393   0.0000       3.921475       106.7088 
 394   0.0000       3.929072       106.9155 
 395   0.0000       3.937227       107.1374 
 396   0.0000       3.950086       107.4873 
 397   0.0000       3.968029       107.9755 
 398   0.0000       3.970681       108.0477 
 399   0.0000       3.986343       108.4739 
 400   0.0000       3.990029       108.5742 
 401   0.0000       4.013663       109.2173 
 402   0.0000       4.025681       109.5444 
 403   0.0000       4.036084       109.8274 
 404   0.0000       4.045644       110.0876 
 405   0.0000       4.056177       110.3742 
 406   0.0000       4.075963       110.9126 
 407   0.0000       4.095382       111.4410 
 408   0.0000       4.103348       111.6578 
 409   0.0000       4.128402       112.3395 
 410   0.0000       4.131243       112.4168 
 411   0.0000       4.138885       112.6248 
 412   0.0000       4.147580       112.8614 
 413   0.0000       4.161935       113.2520 
 414   0.0000       4.167116       113.3930 
 415   0.0000       4.174537       113.5949 
 416   0.0000       4.183660       113.8432 
 417   0.0000       4.190751       114.0361 
 418   0.0000       4.218577       114.7933 
 419   0.0000       4.223439       114.9256 
 420   0.0000       4.237218       115.3006 
 421   0.0000       4.249442       115.6332 
 422   0.0000       4.270718       116.2122 
 423   0.0000       4.276482       116.3690 
 424   0.0000       4.290933       116.7622 
 425   0.0000       4.306762       117.1930 
 426   0.0000       4.317031       117.4724 
 427   0.0000       4.338501       118.0566 
 428   0.0000       4.369305       118.8948 
 429   0.0000       4.392697       119.5314 
 430   0.0000       4.399996       119.7300 
 431   0.0000       4.429316       120.5278 
 432   0.0000       4.439305       120.7996 
 433   0.0000       4.455372       121.2368 
 434   0.0000       4.475816       121.7931 
 435   0.0000       4.507095       122.6443 
 436   0.0000       4.524417       123.1156 
 437   0.0000       4.545487       123.6890 
 438   0.0000       4.556532       123.9895 
 439   0.0000       4.569403       124.3398 
 440   0.0000       4.602501       125.2404 
 441   0.0000       4.627478       125.9201 
 442   0.0000       4.648245       126.4852 
 443   0.0000       4.655937       126.6945 
 444   0.0000       4.670389       127.0878 
 445   0.0000       4.679814       127.3442 
 446   0.0000       4.705490       128.0429 
 447   0.0000       4.719495       128.4240 
 448   0.0000       4.730357       128.7196 
 449   0.0000       4.758011       129.4721 
 450   0.0000       4.773457       129.8924 
 451   0.0000       4.792384       130.4074 
 452   0.0000       4.797504       130.5467 
 453   0.0000       4.810035       130.8877 
 454   0.0000       4.829968       131.4301 
 455   0.0000       4.838101       131.6514 
 456   0.0000       4.872748       132.5942 
 457   0.0000       4.892770       133.1391 
 458   0.0000       4.904033       133.4455 
 459   0.0000       4.908298       133.5616 
 460   0.0000       4.961095       134.9983 
 461   0.0000       4.970356       135.2503 
 462   0.0000       4.986266       135.6832 
 463   0.0000       4.997956       136.0013 
 464   0.0000       5.014384       136.4483 
 465   0.0000       5.033275       136.9624 
 466   0.0000       5.054972       137.5528 
 467   0.0000       5.085970       138.3963 
 468   0.0000       5.098831       138.7463 
 469   0.0000       5.108038       138.9968 
 470   0.0000       5.127368       139.5228 
 471   0.0000       5.132479       139.6618 
 472   0.0000       5.146743       140.0500 
 473   0.0000       5.159171       140.3882 
 474   0.0000       5.169977       140.6822 
 475   0.0000       5.175727       140.8387 
 476   0.0000       5.190409       141.2382 
 477   0.0000       5.195910       141.3879 
 478   0.0000       5.205002       141.6353 
 479   0.0000       5.235292       142.4595 
 480   0.0000       5.248349       142.8148 
 481   0.0000       5.265101       143.2707 
 482   0.0000       5.279615       143.6656 
 483   0.0000       5.283872       143.7815 
 484   0.0000       5.306971       144.4100 
 485   0.0000       5.322353       144.8286 
 486   0.0000       5.330891       145.0609 
 487   0.0000       5.343469       145.4032 
 488   0.0000       5.362794       145.9290 
 489   0.0000       5.374453       146.2463 
 490   0.0000       5.424786       147.6159 
 491   0.0000       5.438042       147.9766 
 492   0.0000       5.464968       148.7093 
 493   0.0000       5.490442       149.4025 
 494   0.0000       5.510880       149.9587 
 495   0.0000       5.518821       150.1748 
 496   0.0000       5.537099       150.6721 
 497   0.0000       5.546386       150.9248 
 498   0.0000       5.555820       151.1816 
 499   0.0000       5.567947       151.5115 
 500   0.0000       5.587620       152.0469 
 501   0.0000       5.596204       152.2804 
 502   0.0000       5.608904       152.6260 
 503   0.0000       5.622323       152.9912 
 504   0.0000       5.638884       153.4418 
 505   0.0000       5.673255       154.3771 
 506   0.0000       5.689347       154.8150 
 507   0.0000       5.700851       155.1280 
 508   0.0000       5.746558       156.3718 
 509   0.0000       5.762214       156.7978 
 510   0.0000       5.806240       157.9958 
 511   0.0000       5.830610       158.6590 
 512   0.0000       5.835817       158.8007 
 513   0.0000       5.876671       159.9123 
 514   0.0000       5.899940       160.5455 
 515   0.0000       5.924276       161.2078 
 516   0.0000       5.970831       162.4746 
 517   0.0000       5.982741       162.7987 
 518   0.0000       6.002849       163.3458 
 519   0.0000       6.072497       165.2410 
 520   0.0000       6.095104       165.8562 
 521   0.0000       6.125906       166.6944 
 522   0.0000       6.167962       167.8388 
 523   0.0000       6.184854       168.2984 
 524   0.0000       6.296161       171.3273 
 525   0.0000       6.300934       171.4571 
 526   0.0000       6.320018       171.9764 
 527   0.0000       6.347025       172.7113 
 528   0.0000       6.354092       172.9036 
 529   0.0000       6.377476       173.5400 
 530   0.0000       6.394603       174.0060 
 531   0.0000       6.425945       174.8589 
 532   0.0000       6.431085       174.9987 
 533   0.0000       6.451947       175.5664 
 534   0.0000       6.462938       175.8655 
 535   0.0000       6.470198       176.0630 
 536   0.0000       6.488301       176.5556 
 537   0.0000       6.517011       177.3369 
 538   0.0000       6.582187       179.1104 
 539   0.0000       6.604910       179.7287 
 540   0.0000       6.691330       182.0803 
 541   0.0000       6.713063       182.6717 
 542   0.0000       6.720919       182.8855 
 543   0.0000       6.771406       184.2593 
 544   0.0000       6.789220       184.7441 
 545   0.0000       6.818733       185.5472 
 546   0.0000       6.823436       185.6751 
 547   0.0000       6.839513       186.1126 
 548   0.0000       6.852897       186.4768 
 549   0.0000       6.941522       188.8884 
 550   0.0000       7.037333       191.4956 
 551   0.0000       7.069206       192.3629 
 552   0.0000       7.089273       192.9089 
 553   0.0000       7.140912       194.3141 
 554   0.0000       7.159117       194.8095 
 555   0.0000       7.185844       195.5368 
 556   0.0000       7.422212       201.9687 
 557   0.0000       7.453717       202.8260 
 558   0.0000      23.047914       627.1656 
 559   0.0000      23.119892       629.1243 
 560   0.0000      23.229370       632.1033 
 561   0.0000      23.255969       632.8271 
 562   0.0000      23.312472       634.3646 
 563   0.0000      23.394478       636.5961 
 564   0.0000      32.685402       889.4150 
 565   0.0000      32.805545       892.6843 
 566   0.0000      32.875508       894.5881 
 567   0.0000      43.807014      1192.0494 
 568   0.0000      43.878539      1193.9957 
 569   0.0000      43.953256      1196.0289 
 570   0.0000      43.966910      1196.4004 

                    ********************************
                    * MULLIKEN POPULATION ANALYSIS *
                    ********************************

-----------------------
MULLIKEN ATOMIC CHARGES
-----------------------
   0 N :   -0.203104
   1 H :    0.199140
   2 C :   -0.101505
   3 C :    0.311243
   4 H :    0.132341
   5 H :    0.159717
   6 O :   -0.234730
   7 C :    0.236624
   8 C :   -0.101084
   9 O :   -0.337873
  10 N :   -0.156318
  11 H :    0.153710
  12 H :    0.155655
  13 H :    0.201153
  14 C :    0.283658
  15 C :   -0.159349
  16 O :   -0.417723
  17 H :    0.179007
  18 H :    0.159103
  19 O :   -0.355913
  20 H :    0.249439
  21 N :   -0.082205
  22 H :    0.242617
  23 H :    0.240528
  24 H :    0.245869
Sum of atomic charges:    1.0000000

--------------------------------
MULLIKEN REDUCED ORBITAL CHARGES
--------------------------------
  0 N s       :     3.415060  s :     3.415060
      pz      :     1.055146  p :     3.730431
      px      :     1.152608
      py      :     1.522678
      dz2     :     0.013123  d :     0.053887
      dxz     :     0.017401
      dyz     :     0.009627
      dx2y2   :     0.006757
      dxy     :     0.006980
      f0      :     0.000663  f :     0.003725
      f+1     :     0.000626
      f-1     :     0.000453
      f+2     :     0.000309
      f-2     :     0.000455
      f+3     :     0.000640
      f-3     :     0.000580
  1 H s       :     0.732226  s :     0.732226
      pz      :     0.020726  p :     0.063237
      px      :     0.020018
      py      :     0.022493
      dz2     :     0.001236  d :     0.005397
      dxz     :     0.001212
      dyz     :     0.001065
      dx2y2   :     0.001040
      dxy     :     0.000844
  2 C s       :     3.193149  s :     3.193149
      pz      :     0.800628  p :     2.788986
      px      :     1.085766
      py      :     0.902592
      dz2     :     0.024091  d :     0.111573
      dxz     :     0.024349
      dyz     :     0.034700
      dx2y2   :     0.013947
      dxy     :     0.014486
      f0      :     0.001821  f :     0.007798
      f+1     :     0.001420
      f-1     :     0.002173
      f+2     :     0.000713
      f-2     :     0.000672
      f+3     :     0.000329
      f-3     :     0.000671
  3 C s       :     3.122422  s :     3.122422
      pz      :     0.746903  p :     2.288650
      px      :     0.719696
      py      :     0.822051
      dz2     :     0.056885  d :     0.254584
      dxz     :     0.057171
      dyz     :     0.088223
      dx2y2   :     0.025034
      dxy     :     0.027271
      f0      :     0.004569  f :     0.023101
      f+1     :     0.003432
      f-1     :     0.005971
      f+2     :     0.003529
      f-2     :     0.002799
      f+3     :     0.001497
      f-3     :     0.001304
  4 H s       :     0.831128  s :     0.831128
      pz      :     0.007581  p :     0.034468
      px      :     0.015840
      py      :     0.011047
      dz2     :     0.000165  d :     0.002063
      dxz     :     0.000702
      dyz     :     0.000157
      dx2y2   :     0.000623
      dxy     :     0.000416
  5 H s       :     0.805596  s :     0.805596
      pz      :     0.010314  p :     0.032541
      px      :     0.014162
      py      :     0.008065
      dz2     :     0.000752  d :     0.002147
      dxz     :     0.000312
      dyz     :     0.000280
      dx2y2   :     0.000490
      dxy     :     0.000313
  6 O s       :     3.807562  s :     3.807562
      pz      :     1.336985  p :     4.391503
      px      :     1.369952
      py      :     1.684565
      dz2     :     0.011446  d :     0.033700
      dxz     :     0.010956
      dyz     :     0.008829
      dx2y2   :     0.001027
      dxy     :     0.001442
      f0      :     0.000621  f :     0.001965
      f+1     :     0.000497
      f-1     :     0.000489
      f+2     :     0.000144
      f-2     :     0.000187
      f+3     :     0.000011
      f-3     :     0.000016
[...]
     53      -0.000111   0.541584  -0.001509   0.029108   0.013319   0.006626
     54       0.000264  -0.430385   0.000662   0.007947  -0.021883   0.001811
     55       0.000351  -0.554349   0.000853   0.003416  -0.016894   0.001500
     56      -0.000206   0.359893  -0.000559   0.000744   0.011277  -0.000668
     57      -0.000025   0.000036   0.000010  -0.000971  -0.000723  -0.000212
     58      -0.000329  -0.000186   0.000011   0.002238   0.001431   0.000600
     59      -0.000062  -0.000064   0.000000   0.000231   0.000362   0.000015
     60      -0.000244  -0.000147  -0.000077   0.002863   0.002046   0.000459
     61       0.000195   0.000675  -0.000003  -0.009084  -0.005700  -0.004908
     62      -0.000715  -0.000136  -0.000051   0.006248   0.002789   0.002758
     63       0.000043  -0.001901  -0.000048  -0.001755   0.037529   0.046798
     64      -0.000024  -0.001368  -0.000064  -0.024590   0.043691  -0.060652
     65      -0.000148   0.002932   0.000035  -0.050016  -0.051275  -0.006056
     66       0.000088   0.001857   0.000120   0.133806  -0.064035  -0.670695
     67      -0.000068  -0.002217   0.000026  -0.138633   0.063795   0.713159
     68       0.000044   0.000177   0.000014  -0.003082   0.003308   0.024939
     69       0.000080   0.004205   0.000743   0.161361  -0.374687   0.067404
     70       0.000009   0.020203   0.000886   0.332913  -0.762740   0.113687
     71      -0.000204  -0.013710  -0.000271  -0.150576   0.317244  -0.053432
     72      -0.000567   0.014093   0.000049  -0.247749  -0.103252  -0.028995
     73       0.000079  -0.002854  -0.000099   0.146708   0.074717   0.011949
     74       0.001998  -0.021542  -0.000185   0.846235   0.381531   0.116747
                 72         73         74    
      0      -0.000903   0.048923   0.000004
      1      -0.000548   0.028565  -0.000170
      2       0.000908  -0.047919   0.000244
      3       0.012464  -0.660371   0.001814
      4       0.007766  -0.377684   0.001228
      5      -0.012084   0.644366  -0.002069
      6      -0.000019   0.000603  -0.000067
      7       0.000022  -0.000279  -0.000465
      8       0.000000   0.001616  -0.000088
      9      -0.000029   0.000031  -0.001085
     10      -0.000015   0.000032   0.003304
     11       0.000078   0.000254   0.001142
     12       0.000120  -0.006645   0.001280
     13       0.000115  -0.003423   0.000696
     14       0.000066  -0.002693   0.000297
     15       0.000157  -0.003047   0.000087
     16      -0.000064   0.001564  -0.000035
     17      -0.000264   0.007297   0.000510
     18       0.000011   0.000018   0.000293
     19       0.000020  -0.000074  -0.000130
     20      -0.000047   0.000023  -0.001012
     21      -0.000059  -0.000491  -0.000071
     22      -0.000077  -0.000255  -0.000034
     23       0.000073  -0.001146  -0.000072
     24       0.000955   0.000139  -0.000003
     25      -0.000304   0.000322   0.000002
     26      -0.000736   0.000144  -0.000014
     27       0.000092  -0.000899   0.000047
     28       0.000070  -0.000672  -0.000015
     29      -0.000042   0.000509   0.000030
     30       0.037245   0.001147   0.000099
     31       0.062740   0.001209   0.000180
     32      -0.009494  -0.000187   0.000009
     33      -0.002145  -0.002115  -0.000016
     34      -0.009545  -0.002533   0.000025
     35       0.002750   0.000809   0.000006
     36      -0.005969  -0.000292  -0.000036
     37       0.000309  -0.000304   0.000019
     38       0.000065  -0.000299   0.000030
     39      -0.489453  -0.008969  -0.001538
     40      -0.856893  -0.016210  -0.002582
     41       0.142006   0.002716   0.000179
     42      -0.001367  -0.000995   0.000022
     43       0.001121  -0.000536  -0.000011
     44      -0.000530   0.000035  -0.000046
     45       0.000325   0.000045  -0.000008
     46       0.000127   0.000071   0.000021
     47       0.000011  -0.000010  -0.000012
     48      -0.001011   0.000455  -0.000007
     49      -0.000864   0.000347   0.000008
     50      -0.000006  -0.000181   0.000026
     51      -0.000674   0.000133  -0.000035
     52       0.000056  -0.000109  -0.000083
     53       0.000192  -0.000151  -0.000024
     54      -0.003719  -0.000255  -0.000094
     55      -0.003311   0.000474  -0.000530
     56       0.001179  -0.000080   0.000076
     57       0.000020   0.000040  -0.000952
     58      -0.000172   0.000100   0.052648
     59       0.000062  -0.000138  -0.031052
     60      -0.000253  -0.000118   0.019797
     61       0.002569  -0.002533  -0.865381
     62      -0.001678   0.001808   0.496712
     63       0.000050   0.000176  -0.000435
     64       0.000458   0.000182   0.000342
     65      -0.000257  -0.000358   0.000809
     66       0.001917   0.000162   0.002525
     67      -0.002093  -0.000059  -0.002983
     68      -0.000084  -0.000043   0.000339
     69      -0.001230  -0.001003   0.000257
     70      -0.005040  -0.003782   0.000491
     71       0.002146   0.001415  -0.000182
     72      -0.000489  -0.001618   0.004823
     73       0.000168   0.000763  -0.002775
     74       0.002244   0.004269  -0.013423


-----------
IR SPECTRUM
-----------

 Mode   freq       eps      Int      T**2         TX        TY        TZ
       cm**-1   L/(mol*cm) km/mol    a.u.
----------------------------------------------------------------------------
  6:     51.57   0.000476    2.41  0.002882  (-0.018718 -0.047997 -0.015106)
  7:     62.34   0.001899    9.59  0.009504  ( 0.074549 -0.045051 -0.043781)
  8:     70.52   0.000989    5.00  0.004376  (-0.002687  0.024827 -0.061259)
  9:     77.34   0.000935    4.73  0.003774  (-0.058105  0.016370  0.011417)
 10:    103.04   0.009932   50.19  0.030080  (-0.043993  0.101683  0.133438)
 11:    121.46   0.000653    3.30  0.001679  ( 0.026325  0.016251 -0.026862)
 12:    144.60   0.004143   20.94  0.008941  ( 0.020378  0.001277 -0.092328)
 13:    204.10   0.000565    2.86  0.000864  (-0.004204  0.011784 -0.026605)
 14:    246.09   0.000897    4.53  0.001137  (-0.010781 -0.018973 -0.025704)
 15:    275.80   0.000724    3.66  0.000819  ( 0.008226 -0.027352  0.001915)
 16:    300.14   0.006739   34.06  0.007007  ( 0.077641 -0.028365  0.013211)
 17:    325.93   0.002887   14.59  0.002764  ( 0.028954 -0.042501 -0.010937)
 18:    368.28   0.005099   25.77  0.004321  ( 0.041407 -0.044111  0.025703)
 19:    403.53   0.008189   41.39  0.006333  (-0.064937  0.043823 -0.013999)
 20:    436.73   0.003494   17.66  0.002497  ( 0.000041 -0.049968  0.000142)
 21:    475.86   0.004022   20.33  0.002638  ( 0.025074 -0.029614 -0.033647)
 22:    490.92   0.015697   79.33  0.009978  ( 0.005790 -0.098901 -0.012781)
 23:    538.29   0.005580   28.20  0.003235  (-0.044411  0.011970 -0.033453)
 24:    567.14   0.015883   80.27  0.008740  ( 0.036516  0.026010  0.082035)
 25:    591.08   0.011450   57.86  0.006045  ( 0.033717  0.064077  0.028328)
 26:    647.25   0.009054   45.75  0.004365  ( 0.039751  0.014420  0.050765)
 27:    681.05   0.004996   25.25  0.002289  ( 0.043936 -0.017796 -0.006483)
 28:    711.76   0.001351    6.83  0.000592  ( 0.021334 -0.000241 -0.011717)
 29:    718.14   0.006559   33.15  0.002850  (-0.049124  0.014970 -0.014599)
 30:    807.10   0.010926   55.22  0.004224  (-0.022783  0.035130  0.049712)
 31:    817.04   0.004982   25.17  0.001903  (-0.013424  0.021452  0.035529)
 32:    869.17   0.002800   14.15  0.001005  (-0.029877  0.003330 -0.010078)
 33:    899.64   0.002006   10.14  0.000696  (-0.002891 -0.017123 -0.019854)
 34:    918.73   0.004856   24.54  0.001649  ( 0.006762  0.000078 -0.040045)
 35:    992.10   0.001083    5.48  0.000341  ( 0.010538 -0.004890  0.014347)
 36:   1016.22   0.000810    4.09  0.000249  (-0.003417  0.014605 -0.004876)
 37:   1053.16   0.002721   13.75  0.000806  ( 0.007267 -0.023956 -0.013398)
 38:   1065.64   0.000990    5.00  0.000290  (-0.003837  0.014275 -0.008445)
 39:   1119.62   0.001560    7.88  0.000435  ( 0.012608  0.001292 -0.016560)
 40:   1129.16   0.006942   35.08  0.001919  ( 0.022617 -0.032964 -0.017901)
 41:   1151.88   0.010773   54.44  0.002919  (-0.024517  0.045698  0.015143)
 42:   1170.63   0.037557  189.80  0.010012  ( 0.043407 -0.064888 -0.062589)
 43:   1245.22   0.007502   37.91  0.001880  ( 0.025571  0.015537  0.031382)
 44:   1302.65   0.011784   59.55  0.002823  ( 0.036971 -0.038103 -0.002068)
 45:   1309.00   0.000847    4.28  0.000202  (-0.003599  0.009799 -0.009638)
 46:   1323.52   0.009212   46.56  0.002172  (-0.005400  0.017176  0.042988)
 47:   1346.54   0.002271   11.48  0.000526  (-0.008970  0.004360  0.020659)
 48:   1367.63   0.000329    1.66  0.000075  (-0.005523  0.006118  0.002664)
 49:   1385.01   0.002886   14.59  0.000650  (-0.004405  0.013569  0.021137)
 50:   1400.24   0.004515   22.82  0.001006  ( 0.009331  0.013283  0.027253)
 51:   1423.74   0.001110    5.61  0.000243  (-0.002128  0.015379  0.001506)
 52:   1464.75   0.001187    6.00  0.000253  ( 0.003751 -0.015365 -0.001672)
 53:   1489.43   0.006964   35.19  0.001459  ( 0.027941  0.017329 -0.019443)
 54:   1492.23   0.009732   49.18  0.002035  ( 0.032437  0.023566  0.020682)
 55:   1504.27   0.034261  173.14  0.007108  (-0.083284  0.006893 -0.011126)
 56:   1574.53   0.031116  157.25  0.006167  ( 0.036009  0.041712  0.055950)
 57:   1595.35   0.039230  198.25  0.007674  ( 0.082040 -0.028787  0.010698)
 58:   1617.83   0.005294   26.75  0.001021  ( 0.019969  0.010787 -0.022496)
 59:   1696.17   0.010893   55.05  0.002004  (-0.032972  0.029116  0.008315)
 60:   1776.18   0.030011  151.66  0.005273  (-0.061942 -0.037841  0.002000)
 61:   1805.61   0.061782  312.22  0.010678  ( 0.090334  0.038110 -0.032637)
 62:   1909.98   0.063744  322.14  0.010415  ( 0.015440  0.011718 -0.100196)
 63:   3111.00   0.000812    4.10  0.000081  ( 0.006310 -0.001750  0.006208)
 64:   3126.33   0.000171    0.87  0.000017  ( 0.003708 -0.001261 -0.001333)
 65:   3139.48   0.000309    1.56  0.000031  (-0.003133  0.004555 -0.000420)
 66:   3164.02   0.000110    0.56  0.000011  ( 0.002927  0.001330  0.000716)
 67:   3194.79   0.000050    0.25  0.000005  ( 0.000567  0.001899  0.000994)
 68:   3208.32   0.000006    0.03  0.000001  ( 0.000670  0.000001  0.000317)
 69:   3315.41   0.052984  267.76  0.004987  (-0.018867  0.030592  0.060789)
 70:   3361.55   0.036954  186.75  0.003431  (-0.018774 -0.026994  0.048471)
 71:   3548.23   0.029264  147.89  0.002574  (-0.034536  0.036177  0.008498)
 72:   3652.75   0.013070   66.05  0.001117  (-0.025047 -0.022116  0.000378)
 73:   3682.73   0.013643   68.95  0.001156  (-0.024433 -0.012130  0.020297)
 74:   3762.07   0.017348   87.67  0.001439  ( 0.003345 -0.034957  0.014349)

* The epsilon (eps) is given for a Dirac delta lineshape.
** The dipole moment derivative (T) already includes vibrational overlap.

The first frequency considered to be a vibration is 6
The total number of vibrations considered is 69


--------------------------
THERMOCHEMISTRY AT 298.15K
--------------------------

Temperature         ... 298.15 K
Pressure            ... 1.00 atm
Total Mass          ... 190.18 AMU

Throughout the following assumptions are being made:
  (1) The electronic state is orbitally nondegenerate
  (2) There are no thermally accessible electronically excited states
  (3) Hindered rotations indicated by low frequency modes are not
      treated as such but are treated as vibrations and this may
      cause some error
  (4) All equations used are the standard statistical mechanics
      equations for an ideal gas
  (5) All vibrations are strictly harmonic

freq.      51.57  E(vib)   ...       0.52 
freq.      62.34  E(vib)   ...       0.51 
freq.      70.52  E(vib)   ...       0.50 
freq.      77.34  E(vib)   ...       0.49 
freq.     103.04  E(vib)   ...       0.46 
freq.     121.46  E(vib)   ...       0.44 
freq.     144.60  E(vib)   ...       0.41 
freq.     204.10  E(vib)   ...       0.35 
freq.     246.09  E(vib)   ...       0.31 
freq.     275.80  E(vib)   ...       0.28 
freq.     300.14  E(vib)   ...       0.26 
freq.     325.93  E(vib)   ...       0.24 
freq.     368.28  E(vib)   ...       0.21 
freq.     403.53  E(vib)   ...       0.19 
freq.     436.73  E(vib)   ...       0.17 
freq.     475.86  E(vib)   ...       0.15 
freq.     490.92  E(vib)   ...       0.14 
freq.     538.29  E(vib)   ...       0.12 
freq.     567.14  E(vib)   ...       0.11 
freq.     591.08  E(vib)   ...       0.10 
freq.     647.25  E(vib)   ...       0.09 
freq.     681.05  E(vib)   ...       0.08 
freq.     711.76  E(vib)   ...       0.07 
freq.     718.14  E(vib)   ...       0.07 
freq.     807.10  E(vib)   ...       0.05 
freq.     817.04  E(vib)   ...       0.05 
freq.     869.17  E(vib)   ...       0.04 
freq.     899.64  E(vib)   ...       0.03 
freq.     918.73  E(vib)   ...       0.03 
freq.     992.10  E(vib)   ...       0.02 
freq.    1016.22  E(vib)   ...       0.02 
freq.    1053.16  E(vib)   ...       0.02 
freq.    1065.64  E(vib)   ...       0.02 
freq.    1119.62  E(vib)   ...       0.01 
freq.    1129.16  E(vib)   ...       0.01 
freq.    1151.88  E(vib)   ...       0.01 
freq.    1170.63  E(vib)   ...       0.01 
freq.    1245.22  E(vib)   ...       0.01 
freq.    1302.65  E(vib)   ...       0.01 
freq.    1309.00  E(vib)   ...       0.01 
freq.    1323.52  E(vib)   ...       0.01 
freq.    1346.54  E(vib)   ...       0.01 
freq.    1367.63  E(vib)   ...       0.01 
freq.    1385.01  E(vib)   ...       0.00 
freq.    1400.24  E(vib)   ...       0.00 
freq.    1423.74  E(vib)   ...       0.00 
freq.    1464.75  E(vib)   ...       0.00 
freq.    1489.43  E(vib)   ...       0.00 
freq.    1492.23  E(vib)   ...       0.00 
freq.    1504.27  E(vib)   ...       0.00 
freq.    1574.53  E(vib)   ...       0.00 
freq.    1595.35  E(vib)   ...       0.00 
freq.    1617.83  E(vib)   ...       0.00 
freq.    1696.17  E(vib)   ...       0.00 
freq.    1776.18  E(vib)   ...       0.00 
freq.    1805.61  E(vib)   ...       0.00 
freq.    1909.98  E(vib)   ...       0.00 
freq.    3111.00  E(vib)   ...       0.00 
freq.    3126.33  E(vib)   ...       0.00 
freq.    3139.48  E(vib)   ...       0.00 
freq.    3164.02  E(vib)   ...       0.00 
freq.    3194.79  E(vib)   ...       0.00 
freq.    3208.32  E(vib)   ...       0.00 
freq.    3315.41  E(vib)   ...       0.00 
freq.    3361.55  E(vib)   ...       0.00 
freq.    3548.23  E(vib)   ...       0.00 
freq.    3652.75  E(vib)   ...       0.00 
freq.    3682.73  E(vib)   ...       0.00 
freq.    3762.07  E(vib)   ...       0.00 

------------
INNER ENERGY
------------

The inner energy is: U= E(el) + E(ZPE) + E(vib) + E(rot) + E(trans)
    E(el)   - is the total energy from the electronic structure calculation
              = E(kin-el) + E(nuc-el) + E(el-el) + E(nuc-nuc)
    E(ZPE)  - the the zero temperature vibrational energy from the frequency calculation
    E(vib)  - the the finite temperature correction to E(ZPE) due to population
              of excited vibrational states
    E(rot)  - is the rotational thermal energy
    E(trans)- is the translational thermal energy

Summary of contributions to the inner energy U:
Electronic energy                ...   -701.33310785 Eh
Zero point energy                ...      0.20940829 Eh     131.41 kcal/mol
Thermal vibrational correction   ...      0.01065541 Eh       6.69 kcal/mol
Thermal rotational correction    ...      0.00141627 Eh       0.89 kcal/mol
Thermal translational correction ...      0.00141627 Eh       0.89 kcal/mol
-----------------------------------------------------------------------
Total thermal energy                   -701.11021161 Eh


Summary of corrections to the electronic energy:
(perhaps to be used in another calculation)
Total thermal correction                  0.01348795 Eh       8.46 kcal/mol
Non-thermal (ZPE) correction              0.20940829 Eh     131.41 kcal/mol
-----------------------------------------------------------------------
Total correction                          0.22289624 Eh     139.87 kcal/mol


--------
ENTHALPY
--------

The enthalpy is H = U + kB*T
                kB is Boltzmann's constant
Total free energy                 ...   -701.11021161 Eh 
Thermal Enthalpy correction       ...      0.00094421 Eh       0.59 kcal/mol
-----------------------------------------------------------------------
Total Enthalpy                    ...   -701.10926740 Eh


Note: Only C1 symmetry has been detected, increase convergence thresholds 
      if your molecule has a higher symmetry. Symmetry factor of 1.0 is   
      used for the rotational entropy correction. 
 

Note: Rotational entropy computed according to Herzberg 
Infrared and Raman Spectra, Chapter V,1, Van Nostrand Reinhold, 1945 
Point Group:  C1, Symmetry Number:   1  
Rotational constants in cm-1:     0.034362     0.022396     0.016418 

Vibrational entropy computed according to the QRRHO of S. Grimme
Chem.Eur.J. 2012 18 9955


-------
ENTROPY
-------

The entropy contributions are T*S = T*(S(el)+S(vib)+S(rot)+S(trans))
     S(el)   - electronic entropy
     S(vib)  - vibrational entropy
     S(rot)  - rotational entropy
     S(trans)- translational entropy
The entropies will be listed as multiplied by the temperature to get
units of energy

Electronic entropy                ...      0.00000000 Eh      0.00 kcal/mol
Vibrational entropy               ...      0.01874651 Eh     11.76 kcal/mol
Rotational entropy                ...      0.01483556 Eh      9.31 kcal/mol
Translational entropy             ...      0.01978162 Eh     12.41 kcal/mol
-----------------------------------------------------------------------
Final entropy term                ...      0.05336368 Eh     33.49 kcal/mol

In case the symmetry of your molecule has not been determined correctly
or in case you have a reason to use a different symmetry number we print 
out the resulting rotational entropy values for sn=1,12 :
 --------------------------------------------------------
|  sn= 1 | S(rot)=       0.01483556 Eh      9.31 kcal/mol|
|  sn= 2 | S(rot)=       0.01418110 Eh      8.90 kcal/mol|
|  sn= 3 | S(rot)=       0.01379827 Eh      8.66 kcal/mol|
|  sn= 4 | S(rot)=       0.01352664 Eh      8.49 kcal/mol|
|  sn= 5 | S(rot)=       0.01331596 Eh      8.36 kcal/mol|
|  sn= 6 | S(rot)=       0.01314381 Eh      8.25 kcal/mol|
|  sn= 7 | S(rot)=       0.01299826 Eh      8.16 kcal/mol|
|  sn= 8 | S(rot)=       0.01287219 Eh      8.08 kcal/mol|
|  sn= 9 | S(rot)=       0.01276098 Eh      8.01 kcal/mol|
|  sn=10 | S(rot)=       0.01266150 Eh      7.95 kcal/mol|
|  sn=11 | S(rot)=       0.01257151 Eh      7.89 kcal/mol|
|  sn=12 | S(rot)=       0.01248935 Eh      7.84 kcal/mol|
 --------------------------------------------------------


-------------------
GIBBS FREE ENERGY
-------------------

The Gibbs free energy is G = H - T*S

Total enthalpy                    ...   -701.10926740 Eh 
Total entropy correction          ...     -0.05336368 Eh    -33.49 kcal/mol
-----------------------------------------------------------------------
Final Gibbs free energy         ...   -701.16263108 Eh

For completeness - the Gibbs free energy minus the electronic energy
G-E(el)                           ...      0.17047677 Eh    106.98 kcal/mol


Timings for individual modules:

Sum of individual times         ...     6429.895 sec (= 107.165 min)
GTO integral calculation        ...       20.802 sec (=   0.347 min)   0.3 %
SCF iterations                  ...     2074.977 sec (=  34.583 min)  32.3 %
SCF Gradient evaluation         ...      419.939 sec (=   6.999 min)   6.5 %
Geometry relaxation             ...        0.974 sec (=   0.016 min)   0.0 %
Analytical frequency calculation...     3403.431 sec (=  56.724 min)  52.9 %
CHELPG charge generation        ...      509.772 sec (=   8.496 min)   7.9 %
                             ****ORCA TERMINATED NORMALLY****
TOTAL RUN TIME: 0 days 1 hours 47 minutes 29 seconds 994 msec
