
Lmod is automatically replacing "intel/2020.1.217" with "gcc/10.3.0".


Due to MODULEPATH changes, the following have been reloaded:
  1) blis/0.8.1     2) flexiblas/3.0.4

The following have been reloaded with a version change:
  1) gcccore/.9.3.0 => gcccore/.10.3.0        3) openmpi/4.0.3 => openmpi/4.1.1
  2) libfabric/1.10.1 => libfabric/1.12.1     4) ucx/1.8.0 => ucx/1.9.0

To execute ORCA, run: 
   ${EBROOTORCA}/orca orca.inp > orca.out

                                 *****************
                                 * O   R   C   A *
                                 *****************

                                            #,                                       
                                            ###                                      
                                            ####                                     
                                            #####                                    
                                            ######                                   
                                           ########,                                 
                                     ,,################,,,,,                         
                               ,,#################################,,                 
                          ,,##########################################,,             
                       ,#########################################, ''#####,          
                    ,#############################################,,   '####,        
                  ,##################################################,,,,####,       
                ,###########''''           ''''###############################       
              ,#####''   ,,,,##########,,,,          '''####'''          '####       
            ,##' ,,,,###########################,,,                        '##       
           ' ,,###''''                  '''############,,,                           
         ,,##''                                '''############,,,,        ,,,,,,###''
      ,#''                                            '''#######################'''  
     '                                                          ''''####''''         
             ,#######,   #######,   ,#######,      ##                                
            ,#'     '#,  ##    ##  ,#'     '#,    #''#        ######   ,####,        
            ##       ##  ##   ,#'  ##            #'  '#       #        #'  '#        
            ##       ##  #######   ##           ,######,      #####,   #    #        
            '#,     ,#'  ##    ##  '#,     ,#' ,#      #,         ##   #,  ,#        
             '#######'   ##     ##  '#######'  #'      '#     #####' # '####'        



                  #######################################################
                  #                        -***-                        #
                  #          Department of theory and spectroscopy      #
                  #    Directorship and core code : Frank Neese         #
                  #        Max Planck Institute fuer Kohlenforschung    #
                  #                Kaiser Wilhelm Platz 1               #
                  #                 D-45470 Muelheim/Ruhr               #
                  #                      Germany                        #
                  #                                                     #
                  #                  All rights reserved                #
                  #                        -***-                        #
                  #######################################################


                         Program Version 5.0.2 -  RELEASE  -


 With contributions from (in alphabetic order):
   Daniel Aravena         : Magnetic Suceptibility
   Michael Atanasov       : Ab Initio Ligand Field Theory (pilot matlab implementation)
   Alexander A. Auer      : GIAO ZORA, VPT2 properties, NMR spectrum
   Ute Becker             : Parallelization
   Giovanni Bistoni       : ED, misc. LED, open-shell LED, HFLD
   Martin Brehm           : Molecular dynamics
   Dmytro Bykov           : SCF Hessian
   Vijay G. Chilkuri      : MRCI spin determinant printing, contributions to CSF-ICE
   Dipayan Datta          : RHF DLPNO-CCSD density
   Achintya Kumar Dutta   : EOM-CC, STEOM-CC
   Dmitry Ganyushin       : Spin-Orbit,Spin-Spin,Magnetic field MRCI
   Miquel Garcia          : C-PCM and meta-GGA Hessian, CC/C-PCM, Gaussian charge scheme
   Yang Guo               : DLPNO-NEVPT2, F12-NEVPT2, CIM, IAO-localization
   Andreas Hansen         : Spin unrestricted coupled pair/coupled cluster methods
   Benjamin Helmich-Paris : MC-RPA, TRAH-SCF, COSX integrals
   Lee Huntington         : MR-EOM, pCC
   Robert Izsak           : Overlap fitted RIJCOSX, COSX-SCS-MP3, EOM
   Marcus Kettner         : VPT2
   Christian Kollmar      : KDIIS, OOCD, Brueckner-CCSD(T), CCSD density, CASPT2, CASPT2-K
   Simone Kossmann        : Meta GGA functionals, TD-DFT gradient, OOMP2, MP2 Hessian
   Martin Krupicka        : Initial AUTO-CI
   Lucas Lang             : DCDCAS
   Marvin Lechner         : AUTO-CI (C++ implementation), FIC-MRCC
   Dagmar Lenk            : GEPOL surface, SMD
   Dimitrios Liakos       : Extrapolation schemes; Compound Job, initial MDCI parallelization
   Dimitrios Manganas     : Further ROCIS development; embedding schemes
   Dimitrios Pantazis     : SARC Basis sets
   Anastasios Papadopoulos: AUTO-CI, single reference methods and gradients
   Taras Petrenko         : DFT Hessian,TD-DFT gradient, ASA, ECA, R-Raman, ABS, FL, XAS/XES, NRVS
   Peter Pinski           : DLPNO-MP2, DLPNO-MP2 Gradient
   Christoph Reimann      : Effective Core Potentials
   Marius Retegan         : Local ZFS, SOC
   Christoph Riplinger    : Optimizer, TS searches, QM/MM, DLPNO-CCSD(T), (RO)-DLPNO pert. Triples
   Tobias Risthaus        : Range-separated hybrids, TD-DFT gradient, RPA, STAB
   Michael Roemelt        : Original ROCIS implementation
   Masaaki Saitow         : Open-shell DLPNO-CCSD energy and density
   Barbara Sandhoefer     : DKH picture change effects
   Avijit Sen             : IP-ROCIS
   Kantharuban Sivalingam : CASSCF convergence, NEVPT2, FIC-MRCI
   Bernardo de Souza      : ESD, SOC TD-DFT
   Georgi Stoychev        : AutoAux, RI-MP2 NMR, DLPNO-MP2 response
   Willem Van den Heuvel  : Paramagnetic NMR
   Boris Wezisla          : Elementary symmetry handling
   Frank Wennmohs         : Technical directorship


 We gratefully acknowledge several colleagues who have allowed us to
 interface, adapt or use parts of their codes:
   Stefan Grimme, W. Hujo, H. Kruse, P. Pracht,  : VdW corrections, initial TS optimization,
                  C. Bannwarth, S. Ehlert          DFT functionals, gCP, sTDA/sTD-DF
   Ed Valeev, F. Pavosevic, A. Kumar             : LibInt (2-el integral package), F12 methods
   Garnet Chan, S. Sharma, J. Yang, R. Olivares  : DMRG
   Ulf Ekstrom                                   : XCFun DFT Library
   Mihaly Kallay                                 : mrcc  (arbitrary order and MRCC methods)
   Jiri Pittner, Ondrej Demel                    : Mk-CCSD
   Frank Weinhold                                : gennbo (NPA and NBO analysis)
   Christopher J. Cramer and Donald G. Truhlar   : smd solvation model
   Lars Goerigk                                  : TD-DFT with DH, B97 family of functionals
   V. Asgeirsson, H. Jonsson                     : NEB implementation
   FAccTs GmbH                                   : IRC, NEB, NEB-TS, DLPNO-Multilevel, CI-OPT
                                                   MM, QMMM, 2- and 3-layer-ONIOM, Crystal-QMMM,
                                                   LR-CPCM, SF, NACMEs, symmetry and pop. for TD-DFT,
                                                   nearIR, NL-DFT gradient (VV10), updates on ESD,
                                                   ML-optimized integration grids
   S Lehtola, MJT Oliveira, MAL Marques          : LibXC Library
   Liviu Ungur et al                             : ANISO software


 Your calculation uses the libint2 library for the computation of 2-el integrals
 For citations please refer to: http://libint.valeyev.net

 Your ORCA version has been built with support for libXC version: 5.1.0
 For citations please refer to: https://tddft.org/programs/libxc/

 This ORCA versions uses:
   CBLAS   interface :  Fast vector & matrix operations
   LAPACKE interface :  Fast linear algebra routines
   SCALAPACK package :  Parallel linear algebra routines
   Shared memory     :  Shared parallel matrices
   BLAS/LAPACK       :  OpenBLAS 0.3.15  USE64BITINT DYNAMIC_ARCH NO_AFFINITY Zen SINGLE_THREADED
        Core in use  :  Zen
   Copyright (c) 2011-2014, The OpenBLAS Project


Your calculation utilizes the atom-pairwise dispersion correction
with the Becke-Johnson damping scheme (D3BJ)
Cite in your paper:
S.Grimme, S.Ehrlich, L.Goerigk, J Comput Chem, (2011), 32, 1456–1465 
S.Grimme, J.Antony, S.Ehrlich and H.Krieg, J.Chem.Phys., 132, (2010), 154104 
   

================================================================================

----- Orbital basis set information -----
Your calculation utilizes the basis: def2-TZVPP
   F. Weigend and R. Ahlrichs, Phys. Chem. Chem. Phys. 7, 3297 (2005).

----- AuxJ basis set information -----
Your calculation utilizes the auxiliary basis: def2/J
   F. Weigend, Phys. Chem. Chem. Phys. 8, 1057 (2006).

================================================================================
                                        WARNINGS
                       Please study these warnings very carefully!
================================================================================


WARNING: Geometry Optimization
  ===> : Switching off AutoStart
         For restart on a previous wavefunction, please use MOREAD

INFO   : the flag for use of the SHARK integral package has been found!

================================================================================
                                       INPUT FILE
================================================================================
NAME = GGG-H_tt_018_OptFreq.inp
|  1> # GGG-H_tt_018 (old 078)
|  2> ! wB97X-D3BJ Opt Freq def2-TZVPP def2/J RIJCOSX VeryTightSCF
|  3> ! PAL8 defgrid3 VeryTightOpt
|  4> 
|  5> %maxcore 4096
|  6> 
|  7> %geom
|  8>   MaxIter 300
|  9>   # MaxStep 0.1
| 10>   Calc_Hess true
| 11>   Recalc_Hess 10
| 12> end
| 13> 
| 14> %chelpg
| 15>   grid 0.1
| 16>   rmax 3.0
| 17> end
| 18> 
| 19> * xyz 1 1 
| 20>  N   +0.376488   +2.359621   +2.583623
| 21>  H   +0.384660   +3.178311   +1.976032
| 22>  C   +1.050600   +2.439734   +3.866700
| 23>  C   +2.509845   +1.969226   +3.813851
| 24>  H   +1.008650   +3.468036   +4.253167
| 25>  H   +0.531319   +1.777744   +4.582799
| 26>  O   +2.961210   +1.110519   +3.069644
| 27>  C   -0.046228   +1.179590   +2.086613
| 28>  C   -0.610799   +1.160290   +0.650308
| 29>  O   +0.059721   +0.116701   +2.727089
| 30>  N   +0.000000   +0.000000   +0.000000
| 31>  H   -0.372679   +2.078092   +0.092129
| 32>  H   -1.703559   +1.027825   +0.677645
| 33>  H   -0.481509   -0.889508   +0.128859
| 34>  C   +1.373676   +0.000000   +0.000000
| 35>  C   +2.049022   -1.337584   +0.335021
| 36>  O   +2.040501   +1.025857   +0.000000
| 37>  H   +3.043343   -1.401546   -0.127729
| 38>  H   +1.453376   -2.233421   +0.101375
| 39>  O   +3.238038   +2.597554   +4.737816
| 40>  H   +4.151994   +2.236899   +4.718067
| 41>  N   +2.210390   -1.247869   +1.835094
| 42>  H   +2.756478   -0.391188   +2.114512
| 43>  H   +1.270725   -1.038502   +2.284575
| 44>  H   +2.639083   -2.085986   +2.251525
| 45> *
| 46> 
| 47>                          ****END OF INPUT****
================================================================================

                       *****************************
                       * Geometry Optimization Run *
                       *****************************

Geometry optimization settings:
Update method            Update   .... BFGS
Choice of coordinates    CoordSys .... Z-matrix Internals
Initial Hessian          InHess   .... Almoef's Model

Convergence Tolerances:
Energy Change            TolE     ....  2.0000e-07 Eh
Max. Gradient            TolMAXG  ....  3.0000e-05 Eh/bohr
RMS Gradient             TolRMSG  ....  8.0000e-06 Eh/bohr
Max. Displacement        TolMAXD  ....  2.0000e-04 bohr
RMS Displacement         TolRMSD  ....  1.0000e-04 bohr
Strict Convergence                ....  False
------------------------------------------------------------------------------
                        ORCA OPTIMIZATION COORDINATE SETUP
------------------------------------------------------------------------------

The optimization will be done in new redundant internal coordinates
Making redundant internal coordinates   ...  (new redundants) done
Evaluating the initial hessian          ...  (Is done on the fly) done
Evaluating the coordinates              ...  done
Calculating the B-matrix                .... done
Calculating the G-matrix                .... done
Diagonalizing the G-matrix              .... done
Small eigenvalue found = 1.137e-02
Small eigenvalue found = 1.177e-02
Small eigenvalue found = 2.576e-02
The first mode is                       ....   45
The number of degrees of freedom        ....   69

    -----------------------------------------------------------------
                    Redundant Internal Coordinates


    -----------------------------------------------------------------
         Definition                    Initial Value    d2E/dq (diagonal element)
    -----------------------------------------------------------------
      1. B(H   1,N   0)                  1.0196         0.000000   
      2. B(C   2,N   0)                  1.4516         0.000000   
      3. B(C   3,C   2)                  1.5341         0.000000   
      4. B(H   4,C   2)                  1.0993         0.000000   
      5. B(H   5,C   2)                  1.1048         0.000000   
      6. B(O   6,C   3)                  1.2227         0.000000   
      7. B(C   7,N   0)                  1.3484         0.000000   
      8. B(C   8,C   7)                  1.5434         0.000000   
      9. B(O   9,C   7)                  1.2455         0.000000   
     10. B(N  10,C   8)                  1.4636         0.000000   
     11. B(H  11,C   8)                  1.1003         0.000000   
     12. B(H  12,C   8)                  1.1011         0.000000   
     13. B(H  13,N  10)                  1.0196         0.000000   
     14. B(C  14,N  10)                  1.3737         0.000000   
     15. B(C  15,C  14)                  1.5354         0.000000   
     16. B(O  16,C  14)                  1.2235         0.000000   
     17. B(H  17,C  15)                  1.0986         0.000000   
     18. B(H  18,C  15)                  1.1009         0.000000   
     19. B(O  19,C   3)                  1.3337         0.000000   
     20. B(H  20,O  19)                  0.9827         0.000000   
     21. B(N  21,C  15)                  1.5114         0.000000   
     22. B(H  22,H  20)                  3.9538         0.000000   
     23. B(H  22,N  21)                  1.0537         0.000000   
     24. B(H  23,N  21)                  1.0625         0.000000   
     25. B(H  24,N  21)                  1.0294         0.000000   
     26. A(H   1,N   0,C   2)          118.6016         0.000000   
     27. A(C   2,N   0,C   7)          121.3111         0.000000   
     28. A(H   1,N   0,C   7)          119.0504         0.000000   
     29. A(C   3,C   2,H   5)          106.5963         0.000000   
     30. A(C   3,C   2,H   4)          109.5899         0.000000   
     31. A(N   0,C   2,H   4)          110.1598         0.000000   
     32. A(N   0,C   2,C   3)          113.2253         0.000000   
     33. A(N   0,C   2,H   5)          108.7576         0.000000   
     34. A(H   4,C   2,H   5)          108.3409         0.000000   
     35. A(O   6,C   3,O  19)          123.4346         0.000000   
     36. A(C   2,C   3,O  19)          110.5477         0.000000   
     37. A(C   2,C   3,O   6)          125.9799         0.000000   
     38. A(C   8,C   7,O   9)          119.9346         0.000000   
     39. A(N   0,C   7,O   9)          122.0482         0.000000   
     40. A(N   0,C   7,C   8)          117.9457         0.000000   
     41. A(C   7,C   8,H  11)          112.4891         0.000000   
     42. A(C   7,C   8,N  10)          105.7082         0.000000   
     43. A(H  11,C   8,H  12)          109.1306         0.000000   
     44. A(N  10,C   8,H  12)          109.2576         0.000000   
     45. A(C   7,C   8,H  12)          109.9638         0.000000   
     46. A(N  10,C   8,H  11)          110.2155         0.000000   
     47. A(H  13,N  10,C  14)          118.1792         0.000000   
     48. A(C   8,N  10,C  14)          114.6651         0.000000   
     49. A(C   8,N  10,H  13)          115.9983         0.000000   
     50. A(C  15,C  14,O  16)          119.3864         0.000000   
     51. A(N  10,C  14,O  16)          123.0246         0.000000   
     52. A(N  10,C  14,C  15)          116.0943         0.000000   
     53. A(H  17,C  15,H  18)          110.6671         0.000000   
     54. A(C  14,C  15,H  18)          115.1262         0.000000   
     55. A(C  14,C  15,H  17)          110.9107         0.000000   
     56. A(H  18,C  15,N  21)          108.4648         0.000000   
     57. A(H  17,C  15,N  21)          108.9588         0.000000   
     58. A(C  14,C  15,N  21)          102.2287         0.000000   
     59. A(C   3,O  19,H  20)          108.7211         0.000000   
     60. A(H  23,N  21,H  24)          110.9541         0.000000   
     61. A(H  22,N  21,H  24)          109.8076         0.000000   
     62. A(C  15,N  21,H  24)          113.4312         0.000000   
     63. A(H  22,N  21,H  23)          100.7175         0.000000   
     64. A(C  15,N  21,H  23)          109.7036         0.000000   
     65. A(C  15,N  21,H  22)          111.5185         0.000000   
     66. D(H   4,C   2,N   0,C   7)   -160.7350         0.000000   
     67. D(H   5,C   2,N   0,C   7)    -42.1353         0.000000   
     68. D(H   5,C   2,N   0,H   1)    149.6232         0.000000   
     69. D(H   4,C   2,N   0,H   1)     31.0235         0.000000   
     70. D(C   3,C   2,N   0,H   1)    -92.0838         0.000000   
     71. D(C   3,C   2,N   0,C   7)     76.1577         0.000000   
     72. D(O   6,C   3,C   2,H   4)   -154.4836         0.000000   
     73. D(O  19,C   3,C   2,H   5)    -89.3374         0.000000   
     74. D(O  19,C   3,C   2,H   4)     27.7012         0.000000   
     75. D(O   6,C   3,C   2,H   5)     88.4778         0.000000   
     76. D(O  19,C   3,C   2,N   0)    151.1225         0.000000   
     77. D(O   6,C   3,C   2,N   0)    -31.0622         0.000000   
     78. D(O   9,C   7,N   0,H   1)    171.8021         0.000000   
     79. D(C   8,C   7,N   0,C   2)   -173.3108         0.000000   
     80. D(C   8,C   7,N   0,H   1)     -5.1209         0.000000   
     81. D(O   9,C   7,N   0,C   2)      3.6122         0.000000   
     82. D(H  12,C   8,C   7,O   9)     75.6854         0.000000   
     83. D(H  12,C   8,C   7,N   0)   -107.3241         0.000000   
     84. D(H  11,C   8,C   7,O   9)   -162.4605         0.000000   
     85. D(N  10,C   8,C   7,O   9)    -42.1335         0.000000   
     86. D(N  10,C   8,C   7,N   0)    134.8570         0.000000   
     87. D(H  11,C   8,C   7,N   0)     14.5300         0.000000   
     88. D(C  14,N  10,C   8,H  12)   -175.1099         0.000000   
     89. D(C  14,N  10,C   8,H  11)     64.9837         0.000000   
     90. D(C  14,N  10,C   8,C   7)    -56.8188         0.000000   
     91. D(H  13,N  10,C   8,H  12)    -31.7786         0.000000   
     92. D(H  13,N  10,C   8,H  11)   -151.6850         0.000000   
     93. D(H  13,N  10,C   8,C   7)     86.5124         0.000000   
     94. D(O  16,C  14,N  10,C   8)    -29.2693         0.000000   
     95. D(C  15,C  14,N  10,H  13)     -5.8186         0.000000   
     96. D(C  15,C  14,N  10,C   8)    136.6692         0.000000   
     97. D(O  16,C  14,N  10,H  13)   -171.7572         0.000000   
     98. D(N  21,C  15,C  14,O  16)     75.5917         0.000000   
     99. D(N  21,C  15,C  14,N  10)    -90.8880         0.000000   
    100. D(H  18,C  15,C  14,O  16)   -167.0476         0.000000   
    101. D(H  18,C  15,C  14,N  10)     26.4727         0.000000   
    102. D(H  17,C  15,C  14,O  16)    -40.4278         0.000000   
    103. D(H  17,C  15,C  14,N  10)    153.0925         0.000000   
    104. D(H  20,O  19,C   3,O   6)     -1.3632         0.000000   
    105. D(H  20,O  19,C   3,C   2)    176.5183         0.000000   
    106. D(H  24,N  21,C  15,H  18)     56.7401         0.000000   
    107. D(H  24,N  21,C  15,H  17)    -63.8001         0.000000   
    108. D(H  24,N  21,C  15,C  14)    178.7741         0.000000   
    109. D(H  23,N  21,C  15,H  18)    -67.9547         0.000000   
    110. D(H  23,N  21,C  15,H  17)    171.5050         0.000000   
    111. D(H  23,N  21,C  15,C  14)     54.0792         0.000000   
    112. D(H  22,N  21,C  15,H  18)   -178.6584         0.000000   
    113. D(H  22,N  21,C  15,H  17)     60.8014         0.000000   
    114. D(H  22,N  21,C  15,C  14)    -56.6244         0.000000   
    -----------------------------------------------------------------

Number of atoms                         .... 25
Number of degrees of freedom            .... 114

         *************************************************************
         *                GEOMETRY OPTIMIZATION CYCLE   1            *
         *************************************************************
---------------------------------
CARTESIAN COORDINATES (ANGSTROEM)
---------------------------------
  N      0.376488    2.359621    2.583623
  H      0.384660    3.178311    1.976032
  C      1.050600    2.439734    3.866700
  C      2.509845    1.969226    3.813851
  H      1.008650    3.468036    4.253167
  H      0.531319    1.777744    4.582799
  O      2.961210    1.110519    3.069644
  C     -0.046228    1.179590    2.086613
  C     -0.610799    1.160290    0.650308
  O      0.059721    0.116701    2.727089
  N      0.000000    0.000000    0.000000
  H     -0.372679    2.078092    0.092129
  H     -1.703559    1.027825    0.677645
  H     -0.481509   -0.889508    0.128859
  C      1.373676    0.000000    0.000000
  C      2.049022   -1.337584    0.335021
  O      2.040501    1.025857    0.000000
  H      3.043343   -1.401546   -0.127729
  H      1.453376   -2.233421    0.101375
  O      3.238038    2.597554    4.737816
  H      4.151994    2.236899    4.718067
  N      2.210390   -1.247869    1.835094
  H      2.756478   -0.391188    2.114512
  H      1.270725   -1.038502    2.284575
  H      2.639083   -2.085986    2.251525

----------------------------
CARTESIAN COORDINATES (A.U.)
----------------------------
  NO LB      ZA    FRAG     MASS         X           Y           Z
   0 N     7.0000    0    14.007    0.711459    4.459037    4.882340
   1 H     1.0000    0     1.008    0.726902    6.006137    3.734159
   2 C     6.0000    0    12.011    1.985346    4.610429    7.307004
   3 C     6.0000    0    12.011    4.742920    3.721298    7.207134
   4 H     1.0000    0     1.008    1.906072    6.553638    8.037321
   5 H     1.0000    0     1.008    1.004047    3.359449    8.660235
   6 O     8.0000    0    15.999    5.595876    2.098577    5.800786
   7 C     6.0000    0    12.011   -0.087358    2.229102    3.943127
   8 C     6.0000    0    12.011   -1.154243    2.192630    1.228904
   9 O     8.0000    0    15.999    0.112856    0.220533    5.153451
  10 N     7.0000    0    14.007    0.000000    0.000000    0.000000
  11 H     1.0000    0     1.008   -0.704261    3.927025    0.174099
  12 H     1.0000    0     1.008   -3.219260    1.942308    1.280563
  13 H     1.0000    0     1.008   -0.909920   -1.680927    0.243508
  14 C     6.0000    0    12.011    2.595871    0.000000    0.000000
  15 C     6.0000    0    12.011    3.872090   -2.527667    0.633098
  16 O     8.0000    0    15.999    3.855988    1.938589    0.000000
  17 H     1.0000    0     1.008    5.751085   -2.648538   -0.241373
  18 H     1.0000    0     1.008    2.746483   -4.220554    0.191571
  19 O     8.0000    0    15.999    6.119005    4.908666    8.953175
  20 H     1.0000    0     1.008    7.846132    4.227126    8.915855
  21 N     7.0000    0    14.007    4.177032   -2.358131    3.467825
  22 H     1.0000    0     1.008    5.208989   -0.739238    3.995849
  23 H     1.0000    0     1.008    2.401322   -1.962484    4.317221
  24 H     1.0000    0     1.008    4.987144   -3.941942    4.254766

--------------------------------
INTERNAL COORDINATES (ANGSTROEM)
--------------------------------
 N      0   0   0     0.000000000000     0.00000000     0.00000000
 H      1   0   0     1.019552313991     0.00000000     0.00000000
 C      1   2   0     1.451596248701   118.60158358     0.00000000
 C      3   1   2     1.534133881019   113.22534214   267.91619746
 H      3   1   2     1.099327770864   110.15976941    31.02351577
 H      3   1   2     1.104844466367   108.75761412   149.62318228
 O      4   3   1     1.222682352013   125.97991970   328.93776939
 C      1   2   3     1.348399391025   119.05035760   191.48802773
 C      8   1   2     1.543400452594   117.94572667   354.87913878
 O      8   1   2     1.245458840548   122.04824860   171.80213575
 N      9   8   1     1.463642305130   105.70822433   134.85699717
 H      9   8   1     1.100284254929   112.48908156    14.53000669
 H      9   8   1     1.101098862679   109.96381734   252.67590880
 H     11   9   8     1.019647017858   115.99827161    86.51243745
 C     11   9   8     1.373676000000   114.66514962   303.18116308
 C     15  11   9     1.535402959230   116.09426974   136.66922978
 O     15  11   9     1.223535109866   123.02457232   330.73066770
 H     16  15  11     1.098591348494   110.91074917   153.09249494
 H     16  15  11     1.100867176911   115.12621337    26.47272833
 O      4   3   1     1.333706280280   110.54767047   151.12254393
 H     20   4   3     0.982739854673   108.72105902   176.51826229
 N     16  15  11     1.511392542650   102.22865315   269.11204711
 H     22  16  15     1.053654999622   111.51846495   303.37556187
 H     22  16  15     1.062467892350   109.70364610    54.07924965
 H     22  16  15     1.029384559676   113.43123202   178.77409514

---------------------------
INTERNAL COORDINATES (A.U.)
---------------------------
 N      0   0   0     0.000000000000     0.00000000     0.00000000
 H      1   0   0     1.926674652649     0.00000000     0.00000000
 C      1   2   0     2.743119367072   118.60158358     0.00000000
 C      3   1   2     2.899092887895   113.22534214   267.91619746
 H      3   1   2     2.077428418347   110.15976941    31.02351577
 H      3   1   2     2.087853462012   108.75761412   149.62318228
 O      4   3   1     2.310534794082   125.97991970   328.93776939
 C      1   2   3     2.548105568184   119.05035760   191.48802773
 C      8   1   2     2.916604170372   117.94572667   354.87913878
 O      8   1   2     2.353576119706   122.04824860   171.80213575
 N      9   8   1     2.765883114716   105.70822433   134.85699717
 H      9   8   1     2.079235911282   112.48908156    14.53000669
 H      9   8   1     2.080775296836   109.96381734   252.67590880
 H     11   9   8     1.926853617020   115.99827161    86.51243745
 C     11   9   8     2.595871436740   114.66514962   303.18116308
 C     15  11   9     2.901491098157   116.09426974   136.66922978
 O     15  11   9     2.312146272883   123.02457232   330.73066770
 H     16  15  11     2.076036781748   110.91074917   153.09249494
 H     16  15  11     2.080337474186   115.12621337    26.47272833
 O      4   3   1     2.520339612820   110.54767047   151.12254393
 H     20   4   3     1.857109186221   108.72105902   176.51826229
 N     16  15  11     2.856117986459   102.22865315   269.11204711
 H     22  16  15     1.991119388923   111.51846495   303.37556187
 H     22  16  15     2.007773342626   109.70364610    54.07924965
 H     22  16  15     1.945254904274   113.43123202   178.77409514

---------------------
BASIS SET INFORMATION
---------------------
There are 4 groups of distinct atoms

 Group   1 Type N   : 11s6p2d1f contracted to 5s3p2d1f pattern {62111/411/11/1}
 Group   2 Type H   : 5s2p1d contracted to 3s2p1d pattern {311/11/1}
 Group   3 Type C   : 11s6p2d1f contracted to 5s3p2d1f pattern {62111/411/11/1}
 Group   4 Type O   : 11s6p2d1f contracted to 5s3p2d1f pattern {62111/411/11/1}

Atom   0N    basis set group =>   1
Atom   1H    basis set group =>   2
Atom   2C    basis set group =>   3
Atom   3C    basis set group =>   3
Atom   4H    basis set group =>   2
Atom   5H    basis set group =>   2
Atom   6O    basis set group =>   4
Atom   7C    basis set group =>   3
Atom   8C    basis set group =>   3
Atom   9O    basis set group =>   4
Atom  10N    basis set group =>   1
Atom  11H    basis set group =>   2
Atom  12H    basis set group =>   2
Atom  13H    basis set group =>   2
Atom  14C    basis set group =>   3
Atom  15C    basis set group =>   3
Atom  16O    basis set group =>   4
Atom  17H    basis set group =>   2
Atom  18H    basis set group =>   2
Atom  19O    basis set group =>   4
Atom  20H    basis set group =>   2
Atom  21N    basis set group =>   1
Atom  22H    basis set group =>   2
Atom  23H    basis set group =>   2
Atom  24H    basis set group =>   2
---------------------------------
AUXILIARY/J BASIS SET INFORMATION
---------------------------------
There are 4 groups of distinct atoms

 Group   1 Type N   : 12s5p4d2f1g contracted to 6s4p3d1f1g pattern {711111/2111/211/2/1}
 Group   2 Type H   : 5s2p1d contracted to 3s1p1d pattern {311/2/1}
 Group   3 Type C   : 12s5p4d2f1g contracted to 6s4p3d1f1g pattern {711111/2111/211/2/1}
 Group   4 Type O   : 12s5p4d2f1g contracted to 6s4p3d1f1g pattern {711111/2111/211/2/1}

Atom   0N    basis set group =>   1
Atom   1H    basis set group =>   2
Atom   2C    basis set group =>   3
Atom   3C    basis set group =>   3
Atom   4H    basis set group =>   2
Atom   5H    basis set group =>   2
Atom   6O    basis set group =>   4
Atom   7C    basis set group =>   3
Atom   8C    basis set group =>   3
Atom   9O    basis set group =>   4
Atom  10N    basis set group =>   1
Atom  11H    basis set group =>   2
Atom  12H    basis set group =>   2
Atom  13H    basis set group =>   2
Atom  14C    basis set group =>   3
Atom  15C    basis set group =>   3
Atom  16O    basis set group =>   4
Atom  17H    basis set group =>   2
Atom  18H    basis set group =>   2
Atom  19O    basis set group =>   4
Atom  20H    basis set group =>   2
Atom  21N    basis set group =>   1
Atom  22H    basis set group =>   2
Atom  23H    basis set group =>   2
Atom  24H    basis set group =>   2


           ************************************************************
           *        Program running with 8 parallel MPI-processes     *
           *              working on a common directory               *
           ************************************************************
------------------------------------------------------------------------------
                           ORCA GTO INTEGRAL CALCULATION
                           -- RI-GTO INTEGRALS CHOSEN --
------------------------------------------------------------------------------
------------------------------------------------------------------------------
                   ___                                                        
                  /   \      - P O W E R E D   B Y -                         
                 /     \                                                     
                 |  |  |   _    _      __       _____    __    __             
                 |  |  |  | |  | |    /  \     |  _  \  |  |  /  |          
                  \  \/   | |  | |   /    \    | | | |  |  | /  /          
                 / \  \   | |__| |  /  /\  \   | |_| |  |  |/  /          
                |  |  |   |  __  | /  /__\  \  |    /   |      \           
                |  |  |   | |  | | |   __   |  |    \   |  |\   \          
                \     /   | |  | | |  |  |  |  | |\  \  |  | \   \       
                 \___/    |_|  |_| |__|  |__|  |_| \__\ |__|  \__/        
                                                                              
                      - O R C A' S   B I G   F R I E N D -                    
                                      &                                       
                       - I N T E G R A L  F E E D E R -                       
                                                                              
 v1 FN, 2020, v2 2021                                                         
------------------------------------------------------------------------------


Reading SHARK input file GGG-H_tt_018_OptFreq.SHARKINP.tmp ... ok
----------------------
SHARK INTEGRAL PACKAGE
----------------------

Number of atoms                             ...     25
Number of basis functions                   ...    571
Number of shells                            ...    215
Maximum angular momentum                    ...      3
Integral batch strategy                     ... SHARK/LIBINT Hybrid
RI-J (if used) integral strategy            ... SPLIT-RIJ (Revised 2003 algorithm where possible)
Printlevel                                  ...      1
Contraction scheme used                     ... SEGMENTED contraction
Coulomb Range Separation                    ... NOT USED
Exchange Range Separation                   ... Long Range
   Mu parameter                             ...  0.300000
   Scaling (regular/separated)              ...  0.167000  0.833000
Finite Nucleus Model                        ... NOT USED
Auxiliary Coulomb fitting basis             ... AVAILABLE
   # of basis functions in Aux-J            ...    769
   # of shells in Aux-J                     ...    255
   Maximum angular momentum in Aux-J        ...      4
Auxiliary J/K fitting basis                 ... NOT available
Auxiliary Correlation fitting basis         ... NOT available
Auxiliary 'external' fitting basis          ... NOT available
Integral threshold                          ...     1.000000e-12
Primitive cut-off                           ...     1.000000e-14
Primitive pair pre-selection threshold      ...     1.000000e-14

Calculating pre-screening integrals         ... done (  0.0 sec) Dimension = 215
Organizing shell pair data                  ... done (  0.2 sec)
Shell pair information
Total number of shell pairs                 ...     23220
Shell pairs after pre-screening             ...     20028
Total number of primitive shell pairs       ...     63868
Primitive shell pairs kept                  ...     40384
          la=0 lb=0:   4345 shell pairs
          la=1 lb=0:   5600 shell pairs
          la=1 lb=1:   1846 shell pairs
          la=2 lb=0:   3173 shell pairs
          la=2 lb=1:   2102 shell pairs
          la=2 lb=2:    613 shell pairs
          la=3 lb=0:   1106 shell pairs
          la=3 lb=1:    740 shell pairs
          la=3 lb=2:    420 shell pairs
          la=3 lb=3:     83 shell pairs

Calculating one electron integrals          ... done (  0.0 sec)
Calculating RI/J V-Matrix + Cholesky decomp.... done (  0.3 sec)
Calculating Nuclear repulsion               ... done (  0.0 sec) ENN=    898.743029239050 Eh

SHARK setup successfully completed in   1.2 seconds

Maximum memory used throughout the entire GTOINT-calculation: 31.8 MB


           ************************************************************
           *        Program running with 8 parallel MPI-processes     *
           *              working on a common directory               *
           ************************************************************
-------------------------------------------------------------------------------
                                 ORCA SCF
-------------------------------------------------------------------------------

------------
SCF SETTINGS
------------
Hamiltonian:
 Density Functional     Method          .... DFT(GTOs)
 Exchange Functional    Exchange        .... WB97X-V
 Correlation Functional Correlation     .... WB97X-V
 Gradients option       PostSCFGGA      .... off
 Hybrid DFT is turned on
   Fraction HF Exchange ScalHFX         ....  0.167000
   Scaling of DF-GGA-X  ScalDFX         ....  0.000000
   Scaling of DF-GGA-C  ScalDFC         ....  1.000000
   Scaling of DF-LDA-C  ScalLDAC        ....  1.000000
   Perturbative correction              ....  0.000000
   Density functional embedding theory  .... OFF
 Long-range corrected/Screened/Range-Separated Hybrid DFT is turned on
   Amount of maximum screened exact exchange              ....  0.833000
   Range separation parameter mu (erf(mu*r12)/r12)        ....  0.300000
 RI-approximation to the Coulomb term is turned on
   Number of AuxJ basis functions       .... 769
   RIJ-COSX (HFX calculated with COS-X)).... on


General Settings:
 Integral files         IntName         .... GGG-H_tt_018_OptFreq
 Hartree-Fock type      HFTyp           .... RHF
 Total Charge           Charge          ....    1
 Multiplicity           Mult            ....    1
 Number of Electrons    NEL             ....  100
 Basis Dimension        Dim             ....  571
 Nuclear Repulsion      ENuc            ....    898.7430292391 Eh

Convergence Acceleration:
 DIIS                   CNVDIIS         .... on
   Start iteration      DIISMaxIt       ....    12
   Startup error        DIISStart       ....  0.200000
   # of expansion vecs  DIISMaxEq       ....     5
   Bias factor          DIISBfac        ....   1.050
   Max. coefficient     DIISMaxC        ....  10.000
 Trust-Rad. Augm. Hess. CNVTRAH         .... auto
   Auto Start mean grad. ratio tolernc. ....  1.125000
   Auto Start start iteration           ....    20
   Auto Start num. interpolation iter.  ....    10
   Max. Number of Micro iterations      ....    16
   Max. Number of Macro iterations      .... Maxiter - #DIIS iter
   Number of Davidson start vectors     ....     2
   Converg. threshold I  (grad. norm)   ....   2.000e-06
   Converg. threshold II (energy diff.) ....   1.000e-09
   Grad. Scal. Fac. for Micro threshold ....   0.100
   Minimum threshold for Micro iter.    ....   0.010
   NR start threshold (gradient norm)   ....   0.001
   Initial trust radius                 ....   0.400
   Minimum AH scaling param. (alpha)    ....   1.000
   Maximum AH scaling param. (alpha)    .... 1000.000
   Orbital update algorithm             .... Taylor
   White noise on init. David. guess    .... on
   Maximum white noise                  ....   0.010
   Quad. conv. algorithm                .... NR
 SOSCF                  CNVSOSCF        .... on
   Start iteration      SOSCFMaxIt      ....   150
   Startup grad/error   SOSCFStart      ....  0.003300
 Level Shifting         CNVShift        .... on
   Level shift para.    LevelShift      ....    0.2500
   Turn off err/grad.   ShiftErr        ....    0.0010
 Zerner damping         CNVZerner       .... off
 Static damping         CNVDamp         .... on
   Fraction old density DampFac         ....    0.7000
   Max. Damping (<1)    DampMax         ....    0.9800
   Min. Damping (>=0)   DampMin         ....    0.0000
   Turn off err/grad.   DampErr         ....    0.1000
 Fernandez-Rico         CNVRico         .... off

SCF Procedure:
 Maximum # iterations   MaxIter         ....   125
 SCF integral mode      SCFMode         .... Direct
   Integral package                     .... SHARK and LIBINT hybrid scheme
 Reset frequency        DirectResetFreq ....    20
 Integral Threshold     Thresh          ....  1.000e-12 Eh
 Primitive CutOff       TCut            ....  1.000e-14 Eh

Convergence Tolerance:
 Convergence Check Mode ConvCheckMode   .... Total+1el-Energy
 Convergence forced     ConvForced      .... 0
 Energy Change          TolE            ....  1.000e-09 Eh
 1-El. energy change                    ....  1.000e-06 Eh
 Orbital Gradient       TolG            ....  2.000e-06
 Orbital Rotation angle TolX            ....  2.000e-06
 DIIS Error             TolErr          ....  1.000e-08


Diagonalization of the overlap matrix:
Smallest eigenvalue                        ... 9.650e-05
Time for diagonalization                   ...    0.058 sec
Threshold for overlap eigenvalues          ... 1.000e-08
Number of eigenvalues below threshold      ... 0
Time for construction of square roots      ...    0.044 sec
Total time needed                          ...    0.104 sec

Time for model grid setup =    0.202 sec

------------------------------
INITIAL GUESS: MODEL POTENTIAL
------------------------------
Loading Hartree-Fock densities                     ... done
Calculating cut-offs                               ... done
Initializing the effective Hamiltonian             ... done
Setting up the integral package (SHARK)            ... done
Starting the Coulomb interaction                   ... done (   0.4 sec)
Reading the grid                                   ... done
Mapping shells                                     ... done
Starting the XC term evaluation                    ... done (   0.1 sec)
  promolecular density results
     # of electrons  =    100.995930697
     EX              =    -58.970638125
     EC              =     -4.271625947
     EX+EC           =    -63.242264072
Transforming the Hamiltonian                       ... done (   0.0 sec)
Diagonalizing the Hamiltonian                      ... done (   0.0 sec)
Back transforming the eigenvectors                 ... done (   0.0 sec)
Now organizing SCF variables                       ... done
                      ------------------
                      INITIAL GUESS DONE (   0.9 sec)
                      ------------------
-------------------
DFT GRID GENERATION
-------------------

General Integration Accuracy     IntAcc      ... 4.959
Radial Grid Type                 RadialGrid  ... OptM3 with GC (2021)
Angular Grid (max. ang.)         AngularGrid ... 6 (Lebedev-590)
Angular grid pruning method      GridPruning ... 4 (adaptive)
Weight generation scheme         WeightScheme... Becke
Basis function cutoff            BFCut       ... 1.0000e-12
Integration weight cutoff        WCut        ... 1.0000e-14
Angular grids for H and He will be reduced by one unit
Partially contracted basis set               ... off
Rotationally invariant grid construction     ... off

Total number of grid points                  ...   288357
Total number of batches                      ...     4517
Average number of points per batch           ...       63
Average number of grid points per atom       ...    11534
Time for grid setup =    3.454 sec

--------------------
COSX GRID GENERATION
--------------------

GRIDX 1
-------
General Integration Accuracy     IntAcc      ... 4.020
Radial Grid Type                 RadialGrid  ... OptM3 with GC (2021)
Angular Grid (max. ang.)         AngularGrid ... 2 (Lebedev-110)
Angular grid pruning method      GridPruning ... 4 (adaptive)
Weight generation scheme         WeightScheme... Becke
Basis function cutoff            BFCut       ... 1.0000e-12
Integration weight cutoff        WCut        ... 1.0000e-14
Angular grids for H and He will be reduced by one unit
Partially contracted basis set               ... on
Rotationally invariant grid construction     ... off

Total number of grid points                  ...    32106
Total number of batches                      ...      513
Average number of points per batch           ...       62
Average number of grid points per atom       ...     1284
UseSFitting                                  ... on

GRIDX 2
-------
General Integration Accuracy     IntAcc      ... 4.338
Radial Grid Type                 RadialGrid  ... OptM3 with GC (2021)
Angular Grid (max. ang.)         AngularGrid ... 3 (Lebedev-194)
Angular grid pruning method      GridPruning ... 4 (adaptive)
Weight generation scheme         WeightScheme... Becke
Basis function cutoff            BFCut       ... 1.0000e-12
Integration weight cutoff        WCut        ... 1.0000e-14
Angular grids for H and He will be reduced by one unit
Partially contracted basis set               ... on
Rotationally invariant grid construction     ... off

Total number of grid points                  ...    70221
Total number of batches                      ...     1110
Average number of points per batch           ...       63
Average number of grid points per atom       ...     2809
UseSFitting                                  ... on

GRIDX 3
-------
General Integration Accuracy     IntAcc      ... 4.871
Radial Grid Type                 RadialGrid  ... OptM3 with GC (2021)
Angular Grid (max. ang.)         AngularGrid ... 4 (Lebedev-302)
Angular grid pruning method      GridPruning ... 4 (adaptive)
Weight generation scheme         WeightScheme... Becke
Basis function cutoff            BFCut       ... 1.0000e-12
Integration weight cutoff        WCut        ... 1.0000e-14
Angular grids for H and He will be reduced by one unit
Partially contracted basis set               ... on
Rotationally invariant grid construction     ... off

Total number of grid points                  ...   132906
Total number of batches                      ...     2089
Average number of points per batch           ...       63
Average number of grid points per atom       ...     5316
UseSFitting                                  ... on

Time for X-Grid setup             =    2.178 sec

--------------
SCF ITERATIONS
--------------
ITER       Energy         Delta-E        Max-DP      RMS-DP      [F,P]     Damp
               ***  Starting incremental Fock matrix formation  ***
  0   -701.1710655507   0.000000000000 0.06430921  0.00048014  0.3426895 0.7000
                      *** Initiating the SOSCF procedure ***
                      *** Re-Reading the Fockian *** 
                      *** Removing any level shift *** 
ITER      Energy       Delta-E        Grad      Rot      Max-DP    RMS-DP
  1   -701.21601990  -0.0449543478  0.003267  0.003267  0.192105  0.001451
               *** Restarting incremental Fock matrix formation ***
  2   -701.28791480  -0.0718949059  0.011193  0.019441  0.036454  0.000527
  3   -701.28720316   0.0007116488  0.018445  0.016805  0.022339  0.000210
  4   -701.30155216  -0.0143490015  0.001807  0.002376  0.010008  0.000113
  5   -701.30165643  -0.0001042737  0.002032  0.002515  0.002591  0.000037
  6   -701.30198382  -0.0003273865  0.000206  0.000519  0.000801  0.000011
  7   -701.30198807  -0.0000042564  0.000181  0.000310  0.000542  0.000006
  8   -701.30199170  -0.0000036220  0.000067  0.000183  0.000144  0.000002
  9   -701.30199177  -0.0000000750  0.000050  0.000041  0.000065  0.000001
 10   -701.30199193  -0.0000001628  0.000006  0.000014  0.000019  0.000000
 11   -701.30199194  -0.0000000033  0.000004  0.000009  0.000009  0.000000
 12   -701.30199194  -0.0000000012  0.000002  0.000005  0.000006  0.000000
 13   -701.30199194   0.0000000003  0.000002  0.000002  0.000001  0.000000
                  ***Gradient check signals convergence***
              ***Rediagonalizing the Fockian in SOSCF/NRSCF***

               *****************************************************
               *                     SUCCESS                       *
               *           SCF CONVERGED AFTER  14 CYCLES          *
               *****************************************************

Old exchange energy                            =    -27.833380067 Eh
New exchange energy                            =    -27.833377668 Eh
Exchange energy change after final integration =      0.000002399 Eh
Total energy after final integration           =   -701.301989539 Eh
Final COS-X integration done in                =    33.466 sec

----------------
TOTAL SCF ENERGY
----------------

Total Energy       :         -701.30198954 Eh          -19083.39732 eV

Components:
Nuclear Repulsion  :          898.74302924 Eh           24456.04115 eV
Electronic Energy  :        -1600.04501878 Eh          -43539.43846 eV
One Electron Energy:        -2725.85801493 Eh          -74174.36754 eV
Two Electron Energy:         1125.81299616 Eh           30634.92908 eV
Max COSX asymmetry :            0.00000083 Eh               0.00002 eV

Virial components:
Potential Energy   :        -1399.28246695 Eh          -38076.41169 eV
Kinetic Energy     :          697.98047741 Eh           18993.01438 eV
Virial Ratio       :            2.00475875


DFT components:
N(Alpha)           :       50.000008836628 electrons
N(Beta)            :       50.000008836628 electrons
N(Total)           :      100.000017673256 electrons
E(X)               :      -60.049956516109 Eh       
E(C)               :       -4.268182816533 Eh       
E(XC)              :      -64.318139332642 Eh       
DFET-embed. en.    :        0.000000000000 Eh       

---------------
SCF CONVERGENCE
---------------

  Last Energy change         ...   -2.3101e-10  Tolerance :   1.0000e-09
  Last MAX-Density change    ...    2.1094e-15  Tolerance :   1.0000e-08
  Last RMS-Density change    ...    1.3503e-17  Tolerance :   1.0000e-09
  Last Orbital Gradient      ...    2.6770e-07  Tolerance :   2.0000e-06
  Last Orbital Rotation      ...    7.2437e-07  Tolerance :   2.0000e-06

             **** THE GBW FILE WAS UPDATED (GGG-H_tt_018_OptFreq.gbw) ****
             **** DENSITY GGG-H_tt_018_OptFreq.scfp WAS UPDATED ****
             **** ENERGY FILE WAS UPDATED (GGG-H_tt_018_OptFreq.en.tmp) ****
             **** THE GBW FILE WAS UPDATED (GGG-H_tt_018_OptFreq.gbw) ****
             **** DENSITY GGG-H_tt_018_OptFreq.scfp WAS UPDATED ****
----------------
ORBITAL ENERGIES
----------------

  NO   OCC          E(Eh)            E(eV) 
   0   2.0000     -19.410014      -528.1733 
   1   2.0000     -19.359349      -526.7947 
   2   2.0000     -19.341846      -526.3184 
   3   2.0000     -19.341843      -526.3183 
   4   2.0000     -14.673494      -399.2861 
   5   2.0000     -14.601749      -397.3338 
   6   2.0000     -14.591764      -397.0621 
   7   2.0000     -10.566059      -287.5171 
   8   2.0000     -10.539962      -286.8069 
   9   2.0000     -10.538959      -286.7797 
  10   2.0000     -10.501206      -285.7523 
  11   2.0000     -10.473610      -285.0014 
  12   2.0000     -10.470682      -284.9217 
  13   2.0000      -1.391349       -37.8605 
  14   2.0000      -1.341942       -36.5161 
  15   2.0000      -1.324622       -36.0448 
  16   2.0000      -1.298366       -35.3303 
  17   2.0000      -1.271285       -34.5934 
  18   2.0000      -1.216854       -33.1123 
  19   2.0000      -1.210602       -32.9421 
  20   2.0000      -1.051520       -28.6133 
  21   2.0000      -1.029017       -28.0010 
  22   2.0000      -0.983369       -26.7588 
  23   2.0000      -0.898304       -24.4441 
  24   2.0000      -0.874404       -23.7937 
  25   2.0000      -0.865030       -23.5387 
  26   2.0000      -0.848323       -23.0841 
  27   2.0000      -0.832752       -22.6603 
  28   2.0000      -0.797338       -21.6967 
  29   2.0000      -0.787480       -21.4284 
  30   2.0000      -0.777250       -21.1500 
  31   2.0000      -0.771148       -20.9840 
  32   2.0000      -0.749233       -20.3877 
  33   2.0000      -0.739814       -20.1314 
  34   2.0000      -0.728970       -19.8363 
  35   2.0000      -0.715543       -19.4709 
  36   2.0000      -0.698870       -19.0172 
  37   2.0000      -0.686246       -18.6737 
  38   2.0000      -0.675194       -18.3730 
  39   2.0000      -0.669982       -18.2311 
  40   2.0000      -0.654470       -17.8090 
  41   2.0000      -0.645360       -17.5611 
  42   2.0000      -0.638057       -17.3624 
  43   2.0000      -0.624904       -17.0045 
  44   2.0000      -0.582126       -15.8404 
  45   2.0000      -0.558701       -15.2030 
  46   2.0000      -0.539512       -14.6809 
  47   2.0000      -0.529400       -14.4057 
  48   2.0000      -0.526527       -14.3275 
  49   2.0000      -0.508071       -13.8253 
  50   0.0000      -0.086350        -2.3497 
  51   0.0000      -0.063814        -1.7365 
  52   0.0000      -0.052223        -1.4211 
  53   0.0000      -0.045551        -1.2395 
  54   0.0000      -0.016242        -0.4420 
  55   0.0000      -0.014942        -0.4066 
  56   0.0000      -0.004756        -0.1294 
  57   0.0000       0.018136         0.4935 
  58   0.0000       0.027250         0.7415 
  59   0.0000       0.032081         0.8730 
  60   0.0000       0.035079         0.9546 
  61   0.0000       0.054490         1.4827 
  62   0.0000       0.063457         1.7268 
  63   0.0000       0.076821         2.0904 
  64   0.0000       0.082240         2.2379 
  65   0.0000       0.090216         2.4549 
  66   0.0000       0.093184         2.5357 
  67   0.0000       0.103626         2.8198 
  68   0.0000       0.113592         3.0910 
  69   0.0000       0.122779         3.3410 
  70   0.0000       0.124579         3.3900 
  71   0.0000       0.127391         3.4665 
  72   0.0000       0.138566         3.7706 
  73   0.0000       0.145195         3.9509 
  74   0.0000       0.153935         4.1888 
  75   0.0000       0.170414         4.6372 
  76   0.0000       0.182210         4.9582 
  77   0.0000       0.192220         5.2306 
  78   0.0000       0.201833         5.4922 
  79   0.0000       0.207245         5.6394 
  80   0.0000       0.232069         6.3149 
  81   0.0000       0.235022         6.3953 
  82   0.0000       0.242680         6.6037 
  83   0.0000       0.252353         6.8669 
  84   0.0000       0.253621         6.9014 
  85   0.0000       0.268658         7.3106 
  86   0.0000       0.280012         7.6195 
  87   0.0000       0.281709         7.6657 
  88   0.0000       0.286563         7.7978 
  89   0.0000       0.304021         8.2728 
  90   0.0000       0.307661         8.3719 
  91   0.0000       0.309001         8.4083 
  92   0.0000       0.321976         8.7614 
  93   0.0000       0.326102         8.8737 
  94   0.0000       0.332206         9.0398 
  95   0.0000       0.335109         9.1188 
  96   0.0000       0.346111         9.4182 
  97   0.0000       0.349786         9.5182 
  98   0.0000       0.355772         9.6811 
  99   0.0000       0.359592         9.7850 
 100   0.0000       0.363361         9.8876 
 101   0.0000       0.375489        10.2176 
 102   0.0000       0.375855        10.2275 
 103   0.0000       0.384080        10.4514 
 104   0.0000       0.393707        10.7133 
 105   0.0000       0.400802        10.9064 
 106   0.0000       0.409505        11.1432 
 107   0.0000       0.416998        11.3471 
 108   0.0000       0.427280        11.6269 
 109   0.0000       0.429495        11.6872 
 110   0.0000       0.439298        11.9539 
 111   0.0000       0.451358        12.2821 
 112   0.0000       0.461123        12.5478 
 113   0.0000       0.466494        12.6940 
 114   0.0000       0.472686        12.8624 
 115   0.0000       0.486674        13.2431 
 116   0.0000       0.492491        13.4013 
 117   0.0000       0.496131        13.5004 
 118   0.0000       0.501769        13.6538 
 119   0.0000       0.509841        13.8735 
 120   0.0000       0.519715        14.1422 
 121   0.0000       0.523312        14.2400 
 122   0.0000       0.543216        14.7816 
 123   0.0000       0.561010        15.2659 
 124   0.0000       0.573200        15.5976 
 125   0.0000       0.579849        15.7785 
 126   0.0000       0.595578        16.2065 
 127   0.0000       0.608176        16.5493 
 128   0.0000       0.624316        16.9885 
 129   0.0000       0.649486        17.6734 
 130   0.0000       0.653347        17.7785 
 131   0.0000       0.653570        17.7845 
 132   0.0000       0.666808        18.1448 
 133   0.0000       0.677609        18.4387 
 134   0.0000       0.686758        18.6876 
 135   0.0000       0.705938        19.2096 
 136   0.0000       0.712071        19.3764 
 137   0.0000       0.722131        19.6502 
 138   0.0000       0.734010        19.9734 
 139   0.0000       0.739963        20.1354 
 140   0.0000       0.744044        20.2465 
 141   0.0000       0.764879        20.8134 
 142   0.0000       0.766498        20.8575 
 143   0.0000       0.787587        21.4313 
 144   0.0000       0.794571        21.6214 
 145   0.0000       0.799542        21.7567 
 146   0.0000       0.821233        22.3469 
 147   0.0000       0.839273        22.8378 
 148   0.0000       0.853048        23.2126 
 149   0.0000       0.858706        23.3666 
 150   0.0000       0.871459        23.7136 
 151   0.0000       0.874111        23.7858 
 152   0.0000       0.889905        24.2156 
 153   0.0000       0.893576        24.3154 
 154   0.0000       0.904206        24.6047 
 155   0.0000       0.908821        24.7303 
 156   0.0000       0.920398        25.0453 
 157   0.0000       0.936718        25.4894 
 158   0.0000       0.939221        25.5575 
 159   0.0000       0.948346        25.8058 
 160   0.0000       0.968628        26.3577 
 161   0.0000       0.971394        26.4330 
 162   0.0000       0.980191        26.6724 
 163   0.0000       0.996205        27.1081 
 164   0.0000       0.999976        27.2107 
 165   0.0000       1.008411        27.4402 
 166   0.0000       1.011441        27.5227 
 167   0.0000       1.027420        27.9575 
 168   0.0000       1.046804        28.4850 
 169   0.0000       1.058043        28.7908 
 170   0.0000       1.061302        28.8795 
 171   0.0000       1.069360        29.0988 
 172   0.0000       1.089206        29.6388 
 173   0.0000       1.097334        29.8600 
 174   0.0000       1.101816        29.9819 
 175   0.0000       1.113967        30.3126 
 176   0.0000       1.128636        30.7117 
 177   0.0000       1.135364        30.8948 
 178   0.0000       1.140506        31.0347 
 179   0.0000       1.148145        31.2426 
 180   0.0000       1.171036        31.8655 
 181   0.0000       1.180374        32.1196 
 182   0.0000       1.193416        32.4745 
 183   0.0000       1.198096        32.6019 
 184   0.0000       1.208912        32.8962 
 185   0.0000       1.227855        33.4116 
 186   0.0000       1.232867        33.5480 
 187   0.0000       1.239352        33.7245 
 188   0.0000       1.251900        34.0659 
 189   0.0000       1.257741        34.2249 
 190   0.0000       1.276277        34.7293 
 191   0.0000       1.292745        35.1774 
 192   0.0000       1.300004        35.3749 
 193   0.0000       1.312716        35.7208 
 194   0.0000       1.335673        36.3455 
 195   0.0000       1.348169        36.6855 
 196   0.0000       1.352134        36.7934 
 197   0.0000       1.369873        37.2761 
 198   0.0000       1.385676        37.7062 
 199   0.0000       1.388607        37.7859 
 200   0.0000       1.394915        37.9576 
 201   0.0000       1.409657        38.3587 
 202   0.0000       1.413954        38.4757 
 203   0.0000       1.423838        38.7446 
 204   0.0000       1.426621        38.8203 
 205   0.0000       1.436726        39.0953 
 206   0.0000       1.445491        39.3338 
 207   0.0000       1.450157        39.4608 
 208   0.0000       1.480545        40.2877 
 209   0.0000       1.488295        40.4986 
 210   0.0000       1.499149        40.7939 
 211   0.0000       1.519294        41.3421 
 212   0.0000       1.534542        41.7570 
 213   0.0000       1.542949        41.9858 
 214   0.0000       1.550829        42.2002 
 215   0.0000       1.557788        42.3896 
 216   0.0000       1.565383        42.5962 
 217   0.0000       1.578131        42.9431 
 218   0.0000       1.595936        43.4276 
 219   0.0000       1.610575        43.8260 
 220   0.0000       1.624704        44.2105 
 221   0.0000       1.636028        44.5186 
 222   0.0000       1.664294        45.2877 
 223   0.0000       1.669344        45.4252 
 224   0.0000       1.688487        45.9461 
 225   0.0000       1.712704        46.6050 
 226   0.0000       1.716316        46.7033 
 227   0.0000       1.731130        47.1064 
 228   0.0000       1.747521        47.5525 
 229   0.0000       1.762805        47.9684 
 230   0.0000       1.777958        48.3807 
 231   0.0000       1.801057        49.0093 
 232   0.0000       1.812593        49.3232 
 233   0.0000       1.820743        49.5449 
 234   0.0000       1.828249        49.7492 
 235   0.0000       1.876545        51.0634 
 236   0.0000       1.888931        51.4004 
 237   0.0000       1.898175        51.6520 
 238   0.0000       1.909241        51.9531 
 239   0.0000       1.934562        52.6421 
 240   0.0000       1.957931        53.2780 
 241   0.0000       1.975352        53.7521 
 242   0.0000       1.992159        54.2094 
 243   0.0000       2.006096        54.5886 
 244   0.0000       2.018040        54.9137 
 245   0.0000       2.032097        55.2962 
 246   0.0000       2.038431        55.4685 
 247   0.0000       2.054318        55.9008 
 248   0.0000       2.078266        56.5525 
 249   0.0000       2.115957        57.5781 
 250   0.0000       2.139868        58.2288 
 251   0.0000       2.149341        58.4865 
 252   0.0000       2.160265        58.7838 
 253   0.0000       2.190255        59.5999 
 254   0.0000       2.201099        59.8949 
 255   0.0000       2.223007        60.4911 
 256   0.0000       2.240565        60.9689 
 257   0.0000       2.249900        61.2229 
 258   0.0000       2.270514        61.7838 
 259   0.0000       2.286247        62.2119 
 260   0.0000       2.295483        62.4633 
 261   0.0000       2.318628        63.0931 
 262   0.0000       2.340967        63.7010 
 263   0.0000       2.357109        64.1402 
 264   0.0000       2.371934        64.5436 
 265   0.0000       2.403185        65.3940 
 266   0.0000       2.417985        65.7967 
 267   0.0000       2.451609        66.7117 
 268   0.0000       2.461642        66.9847 
 269   0.0000       2.472214        67.2724 
 270   0.0000       2.483866        67.5894 
 271   0.0000       2.500239        68.0350 
 272   0.0000       2.512918        68.3800 
 273   0.0000       2.543569        69.2140 
 274   0.0000       2.549234        69.3682 
 275   0.0000       2.559044        69.6351 
 276   0.0000       2.573419        70.0263 
 277   0.0000       2.581759        70.2532 
 278   0.0000       2.601639        70.7942 
 279   0.0000       2.603034        70.8322 
 280   0.0000       2.642531        71.9069 
 281   0.0000       2.653110        72.1948 
 282   0.0000       2.654606        72.2355 
 283   0.0000       2.666070        72.5474 
 284   0.0000       2.686106        73.0927 
 285   0.0000       2.691446        73.2380 
 286   0.0000       2.704453        73.5919 
 287   0.0000       2.712162        73.8017 
 288   0.0000       2.728687        74.2513 
 289   0.0000       2.746292        74.7304 
 290   0.0000       2.748835        74.7996 
 291   0.0000       2.764492        75.2256 
 292   0.0000       2.776241        75.5454 
 293   0.0000       2.787710        75.8574 
 294   0.0000       2.815591        76.6161 
 295   0.0000       2.830807        77.0302 
 296   0.0000       2.841822        77.3299 
 297   0.0000       2.856691        77.7345 
 298   0.0000       2.874960        78.2316 
 299   0.0000       2.889645        78.6312 
 300   0.0000       2.894015        78.7501 
 301   0.0000       2.903064        78.9964 
 302   0.0000       2.918100        79.4055 
 303   0.0000       2.924205        79.5717 
 304   0.0000       2.940210        80.0072 
 305   0.0000       2.952102        80.3308 
 306   0.0000       2.960322        80.5544 
 307   0.0000       2.966559        80.7242 
 308   0.0000       2.978849        81.0586 
 309   0.0000       2.983227        81.1777 
 310   0.0000       2.988290        81.3155 
 311   0.0000       3.008620        81.8687 
 312   0.0000       3.011407        81.9445 
 313   0.0000       3.036322        82.6225 
 314   0.0000       3.043094        82.8068 
 315   0.0000       3.051614        83.0386 
 316   0.0000       3.056937        83.1835 
 317   0.0000       3.065638        83.4203 
 318   0.0000       3.078489        83.7699 
 319   0.0000       3.083478        83.9057 
 320   0.0000       3.108033        84.5739 
 321   0.0000       3.122014        84.9543 
 322   0.0000       3.126685        85.0814 
 323   0.0000       3.131916        85.2238 
 324   0.0000       3.141127        85.4744 
 325   0.0000       3.145519        85.5939 
 326   0.0000       3.156233        85.8855 
 327   0.0000       3.166101        86.1540 
 328   0.0000       3.179593        86.5211 
 329   0.0000       3.192065        86.8605 
 330   0.0000       3.195313        86.9489 
 331   0.0000       3.215787        87.5060 
 332   0.0000       3.219925        87.6186 
 333   0.0000       3.237391        88.0939 
 334   0.0000       3.244600        88.2901 
 335   0.0000       3.259695        88.7008 
 336   0.0000       3.270956        89.0072 
 337   0.0000       3.274051        89.0915 
 338   0.0000       3.285705        89.4086 
 339   0.0000       3.299102        89.7731 
 340   0.0000       3.314331        90.1875 
 341   0.0000       3.322005        90.3963 
 342   0.0000       3.333858        90.7189 
 343   0.0000       3.350931        91.1835 
 344   0.0000       3.364778        91.5603 
 345   0.0000       3.366577        91.6092 
 346   0.0000       3.376092        91.8681 
 347   0.0000       3.390375        92.2568 
 348   0.0000       3.393742        92.3484 
 349   0.0000       3.400501        92.5323 
 350   0.0000       3.411011        92.8183 
 351   0.0000       3.414712        92.9190 
 352   0.0000       3.432682        93.4080 
 353   0.0000       3.441093        93.6369 
 354   0.0000       3.453822        93.9833 
 355   0.0000       3.465887        94.3116 
 356   0.0000       3.467197        94.3472 
 357   0.0000       3.479809        94.6904 
 358   0.0000       3.496286        95.1388 
 359   0.0000       3.504139        95.3525 
 360   0.0000       3.506273        95.4105 
 361   0.0000       3.515691        95.6668 
 362   0.0000       3.544877        96.4610 
 363   0.0000       3.551777        96.6488 
 364   0.0000       3.557246        96.7976 
 365   0.0000       3.569887        97.1416 
 366   0.0000       3.580179        97.4216 
 367   0.0000       3.594983        97.8245 
 368   0.0000       3.600759        97.9816 
 369   0.0000       3.607144        98.1554 
 370   0.0000       3.621564        98.5478 
 371   0.0000       3.636504        98.9543 
 372   0.0000       3.643260        99.1382 
 373   0.0000       3.659469        99.5792 
 374   0.0000       3.674788        99.9961 
 375   0.0000       3.677794       100.0779 
 376   0.0000       3.688571       100.3711 
 377   0.0000       3.701796       100.7310 
 378   0.0000       3.729067       101.4731 
 379   0.0000       3.735041       101.6356 
 380   0.0000       3.757770       102.2541 
 381   0.0000       3.765943       102.4765 
 382   0.0000       3.774993       102.7228 
 383   0.0000       3.783406       102.9517 
 384   0.0000       3.801102       103.4333 
 385   0.0000       3.817657       103.8837 
 386   0.0000       3.828955       104.1912 
 387   0.0000       3.855250       104.9067 
 388   0.0000       3.872786       105.3839 
 389   0.0000       3.875003       105.4442 
 390   0.0000       3.886478       105.7564 
 391   0.0000       3.905621       106.2774 
 392   0.0000       3.914066       106.5072 
 393   0.0000       3.924347       106.7869 
 394   0.0000       3.926890       106.8561 
 395   0.0000       3.944185       107.3267 
 396   0.0000       3.961602       107.8007 
 397   0.0000       3.964387       107.8765 
 398   0.0000       3.979487       108.2874 
 399   0.0000       3.997179       108.7688 
 400   0.0000       4.007577       109.0517 
 401   0.0000       4.010057       109.1192 
 402   0.0000       4.014894       109.2508 
 403   0.0000       4.036383       109.8356 
 404   0.0000       4.061487       110.5187 
 405   0.0000       4.067302       110.6769 
 406   0.0000       4.088655       111.2580 
 407   0.0000       4.095725       111.4503 
 408   0.0000       4.114354       111.9573 
 409   0.0000       4.115948       112.0006 
 410   0.0000       4.129628       112.3729 
 411   0.0000       4.138867       112.6243 
 412   0.0000       4.149577       112.9157 
 413   0.0000       4.160284       113.2071 
 414   0.0000       4.176264       113.6419 
 415   0.0000       4.181852       113.7940 
 416   0.0000       4.210242       114.5665 
 417   0.0000       4.219170       114.8095 
 418   0.0000       4.237574       115.3103 
 419   0.0000       4.250105       115.6512 
 420   0.0000       4.257308       115.8472 
 421   0.0000       4.278062       116.4120 
 422   0.0000       4.286427       116.6396 
 423   0.0000       4.295090       116.8753 
 424   0.0000       4.318336       117.5079 
 425   0.0000       4.323719       117.6544 
 426   0.0000       4.336684       118.0072 
 427   0.0000       4.362501       118.7097 
 428   0.0000       4.390315       119.4665 
 429   0.0000       4.415596       120.1545 
 430   0.0000       4.440390       120.8292 
 431   0.0000       4.447740       121.0292 
 432   0.0000       4.461032       121.3908 
 433   0.0000       4.491868       122.2299 
 434   0.0000       4.513492       122.8183 
 435   0.0000       4.543599       123.6376 
 436   0.0000       4.565006       124.2201 
 437   0.0000       4.578060       124.5753 
 438   0.0000       4.592427       124.9663 
 439   0.0000       4.596551       125.0785 
 440   0.0000       4.619681       125.7079 
 441   0.0000       4.636748       126.1723 
 442   0.0000       4.647158       126.4556 
 443   0.0000       4.664360       126.9237 
 444   0.0000       4.675564       127.2286 
 445   0.0000       4.710716       128.1851 
 446   0.0000       4.715915       128.3266 
 447   0.0000       4.731077       128.7391 
 448   0.0000       4.745977       129.1446 
 449   0.0000       4.756880       129.4413 
 450   0.0000       4.772484       129.8659 
 451   0.0000       4.776425       129.9731 
 452   0.0000       4.788963       130.3143 
 453   0.0000       4.820291       131.1668 
 454   0.0000       4.841396       131.7411 
 455   0.0000       4.864114       132.3593 
 456   0.0000       4.890589       133.0797 
 457   0.0000       4.917006       133.7985 
 458   0.0000       4.925276       134.0236 
 459   0.0000       4.963704       135.0693 
 460   0.0000       4.970291       135.2485 
 461   0.0000       4.985756       135.6693 
 462   0.0000       4.995693       135.9397 
 463   0.0000       5.008228       136.2808 
 464   0.0000       5.038224       137.0970 
 465   0.0000       5.062272       137.7514 
 466   0.0000       5.072643       138.0336 
 467   0.0000       5.083379       138.3258 
 468   0.0000       5.105762       138.9348 
 469   0.0000       5.108810       139.0178 
 470   0.0000       5.115958       139.2123 
 471   0.0000       5.118906       139.2925 
 472   0.0000       5.134720       139.7228 
 473   0.0000       5.149916       140.1363 
 474   0.0000       5.161381       140.4483 
 475   0.0000       5.168896       140.6528 
 476   0.0000       5.179836       140.9505 
 477   0.0000       5.199036       141.4730 
 478   0.0000       5.227185       142.2389 
 479   0.0000       5.247173       142.7828 
 480   0.0000       5.250138       142.8635 
 481   0.0000       5.269824       143.3992 
 482   0.0000       5.277690       143.6132 
 483   0.0000       5.303379       144.3123 
 484   0.0000       5.321930       144.8171 
 485   0.0000       5.324125       144.8768 
 486   0.0000       5.337257       145.2342 
 487   0.0000       5.375485       146.2744 
 488   0.0000       5.396205       146.8382 
 489   0.0000       5.407237       147.1384 
 490   0.0000       5.433663       147.8575 
 491   0.0000       5.470272       148.8537 
 492   0.0000       5.476062       149.0112 
 493   0.0000       5.481714       149.1650 
 494   0.0000       5.497543       149.5957 
 495   0.0000       5.514702       150.0627 
 496   0.0000       5.533612       150.5772 
 497   0.0000       5.542978       150.8321 
 498   0.0000       5.554963       151.1582 
 499   0.0000       5.560808       151.3173 
 500   0.0000       5.568185       151.5180 
 501   0.0000       5.594474       152.2334 
 502   0.0000       5.614835       152.7874 
 503   0.0000       5.632747       153.2748 
 504   0.0000       5.656856       153.9309 
 505   0.0000       5.672976       154.3695 
 506   0.0000       5.689225       154.8117 
 507   0.0000       5.716871       155.5640 
 508   0.0000       5.758847       156.7062 
 509   0.0000       5.790043       157.5551 
 510   0.0000       5.814522       158.2212 
 511   0.0000       5.841442       158.9537 
 512   0.0000       5.879061       159.9774 
 513   0.0000       5.932537       161.4325 
 514   0.0000       5.939543       161.6232 
 515   0.0000       5.963997       162.2886 
 516   0.0000       5.990118       162.9994 
 517   0.0000       6.007511       163.4727 
 518   0.0000       6.018473       163.7710 
 519   0.0000       6.085477       165.5942 
 520   0.0000       6.102678       166.0623 
 521   0.0000       6.124419       166.6539 
 522   0.0000       6.146345       167.2506 
 523   0.0000       6.167769       167.8335 
 524   0.0000       6.266157       170.5108 
 525   0.0000       6.306851       171.6181 
 526   0.0000       6.335102       172.3869 
 527   0.0000       6.350840       172.8151 
 528   0.0000       6.375818       173.4948 
 529   0.0000       6.393100       173.9651 
 530   0.0000       6.412901       174.5039 
 531   0.0000       6.436976       175.1590 
 532   0.0000       6.447008       175.4320 
 533   0.0000       6.472562       176.1274 
 534   0.0000       6.499610       176.8634 
 535   0.0000       6.528953       177.6618 
 536   0.0000       6.539564       177.9506 
 537   0.0000       6.553862       178.3396 
 538   0.0000       6.571078       178.8081 
 539   0.0000       6.624538       180.2628 
 540   0.0000       6.650218       180.9616 
 541   0.0000       6.713789       182.6915 
 542   0.0000       6.718796       182.8277 
 543   0.0000       6.739421       183.3890 
 544   0.0000       6.783096       184.5774 
 545   0.0000       6.822683       185.6546 
 546   0.0000       6.857611       186.6051 
 547   0.0000       6.876007       187.1057 
 548   0.0000       6.974366       189.7821 
 549   0.0000       7.036015       191.4597 
 550   0.0000       7.065119       192.2516 
 551   0.0000       7.091157       192.9602 
 552   0.0000       7.114908       193.6065 
 553   0.0000       7.166360       195.0066 
 554   0.0000       7.192919       195.7293 
 555   0.0000       7.292319       198.4341 
 556   0.0000       7.384345       200.9382 
 557   0.0000       7.441628       202.4970 
 558   0.0000      23.168580       630.4491 
 559   0.0000      23.182270       630.8216 
 560   0.0000      23.204946       631.4387 
 561   0.0000      23.286194       633.6495 
 562   0.0000      23.307523       634.2299 
 563   0.0000      23.369758       635.9234 
 564   0.0000      32.749821       891.1679 
 565   0.0000      32.764586       891.5697 
 566   0.0000      32.892431       895.0485 
 567   0.0000      43.851513      1193.2603 
 568   0.0000      43.890903      1194.3322 
 569   0.0000      43.935781      1195.5534 
 570   0.0000      44.030962      1198.1434 

                    ********************************
                    * MULLIKEN POPULATION ANALYSIS *
                    ********************************

-----------------------
MULLIKEN ATOMIC CHARGES
-----------------------
   0 N :   -0.157737
   1 H :    0.201130
   2 C :   -0.056956
   3 C :    0.346588
   4 H :    0.158178
   5 H :    0.141911
   6 O :   -0.387334
   7 C :    0.283534
   8 C :   -0.085295
   9 O :   -0.457256
  10 N :   -0.180183
  11 H :    0.129807
  12 H :    0.146840
  13 H :    0.190170
  14 C :    0.189905
  15 C :   -0.139122
  16 O :   -0.303700
  17 H :    0.168757
  18 H :    0.152122
  19 O :   -0.236120
  20 H :    0.256387
  21 N :   -0.080894
  22 H :    0.253545
  23 H :    0.235274
  24 H :    0.230449
Sum of atomic charges:    1.0000000

--------------------------------
MULLIKEN REDUCED ORBITAL CHARGES
--------------------------------
  0 N s       :     3.405481  s :     3.405481
      pz      :     1.123370  p :     3.691666
      px      :     1.469458
      py      :     1.098838
      dz2     :     0.011913  d :     0.056726
      dxz     :     0.008715
      dyz     :     0.019286
      dx2y2   :     0.009868
      dxy     :     0.006944
      f0      :     0.000460  f :     0.003864
      f+1     :     0.000625
      f-1     :     0.000590
      f+2     :     0.000628
      f-2     :     0.000424
      f+3     :     0.000512
      f-3     :     0.000625
  1 H s       :     0.732865  s :     0.732865
      pz      :     0.018626  p :     0.060721
      px      :     0.022292
      py      :     0.019803
      dz2     :     0.001166  d :     0.005284
      dxz     :     0.000696
      dyz     :     0.001214
      dx2y2   :     0.000839
      dxy     :     0.001369
  2 C s       :     3.147107  s :     3.147107
      pz      :     0.819303  p :     2.797479
      px      :     0.870637
      py      :     1.107539
      dz2     :     0.024509  d :     0.104668
      dxz     :     0.023467
      dyz     :     0.022722
      dx2y2   :     0.023430
      dxy     :     0.010540
      f0      :     0.001957  f :     0.007701
      f+1     :     0.001650
      f-1     :     0.000821
      f+2     :     0.001154
      f-2     :     0.000647
      f+3     :     0.000702
      f-3     :     0.000770
  3 C s       :     3.086867  s :     3.086867
      pz      :     0.687549  p :     2.277976
      px      :     0.877017
      py      :     0.713410
      dz2     :     0.077044  d :     0.263943
      dxz     :     0.043270
      dyz     :     0.033510
      dx2y2   :     0.053510
      dxy     :     0.056609
      f0      :     0.002816  f :     0.024625
      f+1     :     0.002978
      f-1     :     0.003968
      f+2     :     0.004919
      f-2     :     0.003706
      f+3     :     0.002997
      f-3     :     0.003242
  4 H s       :     0.804819  s :     0.804819
      pz      :     0.008075  p :     0.034901
      px      :     0.008619
      py      :     0.018207
      dz2     :     0.000340  d :     0.002102
      dxz     :     0.000148
      dyz     :     0.000534
      dx2y2   :     0.000328
      dxy     :     0.000751
  5 H s       :     0.820849  s :     0.820849
      pz      :     0.011103  p :     0.035096
      px      :     0.009765
      py      :     0.014228
      dz2     :     0.000701  d :     0.002144
      dxz     :     0.000315
      dyz     :     0.000380
      dx2y2   :     0.000479
      dxy     :     0.000270
  6 O s       :     3.817166  s :     3.817166
      pz      :     1.457212  p :     4.540966
      px      :     1.715312
      py      :     1.368442
      dz2     :     0.006331  d :     0.027254
      dxz     :     0.004919
      dyz     :     0.006078
      dx2y2   :     0.005194
      dxy     :     0.004732
      f0      :     0.000189  f :     0.001948
      f+1     :     0.000176
      f-1     :     0.000425
      f+2     :     0.000364
      f-2     :     0.000353
      f+3     :     0.000201
      f-3     :     0.000240
  7 C s       :     3.103614  s :     3.103614
      pz      :     0.854483  p :     2.343414
      px      :     0.742408
      py      :     0.746523
      dz2     :     0.060351  d :     0.247921
[...]
     53      -0.049359  -0.000109  -0.002108   0.434322  -0.003829   0.002256
     54      -0.118252   0.001794  -0.001010  -0.357802   0.017025   0.003449
     55      -0.154104   0.002373  -0.001437  -0.475455   0.016979   0.005054
     56      -0.012011   0.000202  -0.000084  -0.028591   0.009659   0.001720
     57      -0.000136   0.000093   0.000005   0.000003  -0.000181  -0.000121
     58       0.000109   0.000064  -0.000001   0.000010   0.000379   0.000137
     59       0.000126   0.000116   0.000002   0.000014   0.000518   0.000157
     60      -0.000912   0.000279  -0.000016   0.000124   0.002790   0.002504
     61       0.000004   0.001394   0.000033  -0.000058  -0.001776  -0.001138
     62      -0.000802   0.000267  -0.000004  -0.000028  -0.001525  -0.000353
     63      -0.054966   0.001264  -0.001626   0.001934  -0.049657   0.027140
     64       0.010065  -0.000235   0.000378  -0.001972  -0.042886  -0.067131
     65       0.040738  -0.000964   0.001263  -0.002622  -0.009324   0.023422
     66      -0.016581   0.000425  -0.001318   0.013566   0.603486   0.121281
     67      -0.004822   0.000297  -0.001083   0.017907   0.765998   0.133996
     68       0.007257  -0.000081   0.000119  -0.005935   0.063314   0.013952
     69       0.781497  -0.018387   0.024561  -0.049323  -0.000739  -0.049805
     70      -0.181500   0.004514  -0.005918   0.012983  -0.011183   0.000349
     71      -0.545532   0.012885  -0.016596   0.043509  -0.010908   0.038593
     72      -0.031135   0.000839  -0.001325   0.003454   0.087250  -0.441472
     73       0.066031  -0.001722   0.002434  -0.007488  -0.160933   0.789940
     74      -0.040766   0.001042  -0.001426   0.003934   0.078169  -0.372021
                 72         73         74    
      0       0.000005   0.003553   0.000076
      1      -0.000436  -0.059216  -0.000085
      2       0.000264   0.044089   0.000148
      3      -0.000361  -0.043231  -0.000195
      4       0.005770   0.794742   0.001524
      5      -0.004122  -0.600660  -0.001044
      6      -0.000008  -0.000962   0.000624
      7      -0.000003  -0.000447  -0.000198
      8       0.000008  -0.001140  -0.000270
      9       0.000007  -0.000085  -0.002262
     10       0.000039   0.000060   0.000444
     11       0.000070  -0.000018  -0.000947
     12      -0.000028   0.001374   0.000997
     13      -0.000017   0.006960   0.001315
     14      -0.000006   0.002601   0.001197
     15      -0.000029   0.001457  -0.000585
     16       0.000033   0.002887  -0.001087
     17      -0.000025  -0.007469   0.002528
     18       0.000005  -0.000010  -0.000055
     19      -0.000023  -0.000034   0.000565
     20      -0.000042  -0.000046   0.000860
     21       0.000055   0.000390  -0.000067
     22       0.000030   0.000275  -0.000087
     23      -0.000118   0.001423  -0.000064
     24       0.000802  -0.000041   0.000009
     25      -0.000245  -0.000243  -0.000013
     26      -0.001341   0.000010  -0.000012
     27       0.000010  -0.000090   0.000033
     28      -0.000089   0.001312   0.000044
     29      -0.000139  -0.000452   0.000021
     30       0.035555  -0.000250   0.000035
     31       0.062193  -0.000488   0.000067
     32      -0.014912   0.000111   0.000008
     33      -0.001501   0.000534  -0.000013
     34      -0.009574   0.004036   0.000055
     35       0.002728  -0.001151  -0.000010
     36      -0.006716   0.000144  -0.000060
     37       0.000049   0.000532   0.000047
     38       0.002632   0.000109   0.000064
     39      -0.467551   0.003267  -0.000472
     40      -0.851305   0.005957  -0.000801
     41       0.225988  -0.001743   0.000087
     42      -0.001253   0.000077  -0.000016
     43       0.001236   0.000006  -0.000041
     44      -0.000785  -0.000049  -0.000010
     45       0.000282  -0.000004  -0.000002
     46       0.000184  -0.000014   0.000008
     47       0.000235  -0.000031  -0.000024
     48      -0.000745  -0.000020   0.000006
     49      -0.000743  -0.000015   0.000025
     50       0.000103   0.000041   0.000026
     51      -0.001160  -0.000012   0.000035
     52       0.000154   0.000023  -0.000015
     53      -0.000208  -0.000018   0.000030
     54      -0.004189   0.000053   0.000015
     55      -0.003606  -0.000050  -0.000014
     56      -0.000089   0.000001   0.000045
     57       0.000041   0.000053  -0.057013
     58      -0.000034  -0.000076   0.023009
     59      -0.000029  -0.000046  -0.002626
     60      -0.000892  -0.001761   0.923728
     61       0.000387   0.000800  -0.376047
     62       0.000046  -0.000067   0.038506
     63      -0.000006  -0.000471   0.000021
     64       0.000183   0.000245   0.000327
     65      -0.000035   0.000156   0.000028
     66      -0.000377   0.000606  -0.001278
     67      -0.000814   0.000461  -0.003661
     68       0.000194  -0.000045  -0.001030
     69       0.000235   0.005681   0.000489
     70      -0.000518  -0.002528  -0.000816
     71       0.000598  -0.003386  -0.000644
     72       0.000815   0.001062   0.001074
     73      -0.001948  -0.002120  -0.001413
     74       0.001000   0.001128   0.000820


-----------
IR SPECTRUM
-----------

 Mode   freq       eps      Int      T**2         TX        TY        TZ
       cm**-1   L/(mol*cm) km/mol    a.u.
----------------------------------------------------------------------------
  6:     43.38   0.000060    0.30  0.000431  ( 0.002256  0.008704  0.018724)
  7:     57.95   0.000174    0.88  0.000937  ( 0.026037 -0.005856  0.014986)
  8:     84.49   0.001419    7.17  0.005240  ( 0.005390  0.002513 -0.072144)
  9:     87.79   0.001388    7.01  0.004934  (-0.002381  0.029473  0.063713)
 10:    125.51   0.003757   18.98  0.009340  ( 0.025804  0.060764  0.070585)
 11:    144.29   0.004250   21.48  0.009191  ( 0.082823  0.042615  0.022712)
 12:    202.10   0.007799   39.41  0.012043  (-0.058554  0.043495  0.081989)
 13:    229.42   0.005830   29.46  0.007929  ( 0.049888 -0.066798 -0.031282)
 14:    270.18   0.002196   11.10  0.002537  ( 0.013219 -0.036734  0.031823)
 15:    280.63   0.004254   21.50  0.004731  (-0.056945 -0.009420 -0.037406)
 16:    294.48   0.004752   24.01  0.005035  ( 0.051622 -0.039769  0.028090)
 17:    318.08   0.000889    4.49  0.000872  (-0.009812  0.022906 -0.015845)
 18:    344.97   0.000681    3.44  0.000616  ( 0.020130  0.014525 -0.000478)
 19:    396.44   0.007760   39.22  0.006108  (-0.041557  0.055166  0.036581)
 20:    434.03   0.004722   23.86  0.003395  ( 0.018011 -0.046965 -0.029412)
 21:    493.61   0.010180   51.45  0.006436  ( 0.077912 -0.012220  0.014702)
 22:    513.30   0.006065   30.65  0.003687  ( 0.024127 -0.053525  0.015497)
 23:    533.31   0.006020   30.42  0.003522  ( 0.016227 -0.012798 -0.055635)
 24:    587.13   0.017261   87.23  0.009174  (-0.068361 -0.020642 -0.063837)
 25:    612.02   0.003861   19.51  0.001969  ( 0.019597 -0.031397 -0.024476)
 26:    660.19   0.020889  105.56  0.009874  (-0.056486 -0.076219  0.029563)
 27:    683.76   0.011492   58.08  0.005245  (-0.046270 -0.018798 -0.052447)
 28:    711.38   0.002889   14.60  0.001268  (-0.023076  0.024947 -0.010615)
 29:    756.31   0.003135   15.84  0.001294  ( 0.014639 -0.012504  0.030381)
 30:    796.93   0.002936   14.84  0.001150  ( 0.008107  0.003719  0.032713)
 31:    873.75   0.001177    5.95  0.000420  (-0.002795  0.018652  0.008045)
 32:    875.44   0.002447   12.37  0.000872  (-0.006703 -0.015523 -0.024215)
 33:    897.70   0.003766   19.03  0.001309  ( 0.005379 -0.005654 -0.035329)
 34:    916.59   0.001466    7.41  0.000499  (-0.019604 -0.004091 -0.009911)
 35:    982.46   0.001283    6.49  0.000408  (-0.016819  0.010516 -0.003766)
 36:   1047.72   0.001528    7.72  0.000455  ( 0.018027 -0.008827  0.007231)
 37:   1057.80   0.002869   14.50  0.000846  (-0.002325  0.024021 -0.016244)
 38:   1061.33   0.002393   12.09  0.000704  ( 0.026129 -0.003613 -0.002809)
 39:   1116.11   0.002043   10.33  0.000571  (-0.023623  0.001468  0.003333)
 40:   1137.91   0.009047   45.72  0.002481  (-0.024055  0.043093  0.006740)
 41:   1148.73   0.005560   28.10  0.001511  (-0.017858  0.021295  0.027169)
 42:   1200.24   0.055581  280.88  0.014451  ( 0.068555  0.034770  0.092424)
 43:   1261.09   0.002084   10.53  0.000516  ( 0.006812  0.019900  0.008556)
 44:   1286.16   0.005031   25.42  0.001221  ( 0.029530 -0.016742  0.008262)
 45:   1298.97   0.000948    4.79  0.000228  ( 0.006963 -0.008811  0.010077)
 46:   1319.72   0.008527   43.09  0.002016  ( 0.003065  0.019125  0.040512)
 47:   1330.63   0.006566   33.18  0.001540  ( 0.039220 -0.001166  0.000505)
 48:   1344.23   0.004027   20.35  0.000935  (-0.013959 -0.013980 -0.023336)
 49:   1404.42   0.001812    9.16  0.000403  (-0.003596  0.009941 -0.017057)
 50:   1421.65   0.000116    0.59  0.000026  ( 0.003980  0.002775  0.001404)
 51:   1450.03   0.009567   48.35  0.002059  (-0.044703 -0.002185 -0.007478)
 52:   1468.48   0.007818   39.51  0.001661  ( 0.014358 -0.005198  0.037792)
 53:   1473.06   0.002674   13.51  0.000566  ( 0.003079 -0.015697  0.017624)
 54:   1506.43   0.002873   14.52  0.000595  ( 0.013600 -0.019332 -0.006041)
 55:   1553.59   0.028726  145.17  0.005770  ( 0.073813 -0.016847 -0.006155)
 56:   1562.31   0.019820  100.16  0.003959  ( 0.022151  0.006150  0.058569)
 57:   1605.38   0.053945  272.62  0.010486  ( 0.033496  0.072426  0.064177)
 58:   1635.56   0.033405  168.82  0.006374  ( 0.000889 -0.079327  0.008953)
 59:   1665.41   0.040779  206.08  0.007641  (-0.049693  0.068768  0.021042)
 60:   1734.92   0.023432  118.42  0.004215  ( 0.008726  0.059765 -0.023808)
 61:   1818.31   0.046631  235.65  0.008003  (-0.052539 -0.072125 -0.006370)
 62:   1838.54   0.069317  350.30  0.011765  (-0.031725  0.055828  0.087420)
 63:   3107.38   0.000925    4.67  0.000093  ( 0.006880  0.004027  0.005412)
 64:   3123.96   0.000244    1.23  0.000024  (-0.000957  0.003978  0.002769)
 65:   3130.36   0.003862   19.52  0.000385  (-0.008343  0.014693  0.009974)
 66:   3149.41   0.082541  417.13  0.008179  ( 0.063037 -0.050627 -0.040520)
 67:   3171.58   0.000113    0.57  0.000011  (-0.000916  0.003102 -0.000815)
 68:   3182.23   0.000101    0.51  0.000010  (-0.001790  0.002009 -0.001639)
 69:   3204.29   0.000676    3.42  0.000066  (-0.004088  0.005257  0.004640)
 70:   3387.65   0.032548  164.48  0.002998  ( 0.028866  0.039446  0.024677)
 71:   3551.00   0.024627  124.45  0.002164  (-0.017414  0.042600 -0.006800)
 72:   3659.50   0.009462   47.81  0.000807  (-0.020303 -0.019753  0.002109)
 73:   3677.72   0.014750   74.54  0.001252  (-0.000588  0.032876 -0.013056)
 74:   3801.56   0.025271  127.71  0.002074  ( 0.041526 -0.005844  0.017772)

* The epsilon (eps) is given for a Dirac delta lineshape.
** The dipole moment derivative (T) already includes vibrational overlap.

The first frequency considered to be a vibration is 6
The total number of vibrations considered is 69


--------------------------
THERMOCHEMISTRY AT 298.15K
--------------------------

Temperature         ... 298.15 K
Pressure            ... 1.00 atm
Total Mass          ... 190.18 AMU

Throughout the following assumptions are being made:
  (1) The electronic state is orbitally nondegenerate
  (2) There are no thermally accessible electronically excited states
  (3) Hindered rotations indicated by low frequency modes are not
      treated as such but are treated as vibrations and this may
      cause some error
  (4) All equations used are the standard statistical mechanics
      equations for an ideal gas
  (5) All vibrations are strictly harmonic

freq.      43.38  E(vib)   ...       0.53 
freq.      57.95  E(vib)   ...       0.51 
freq.      84.49  E(vib)   ...       0.48 
freq.      87.79  E(vib)   ...       0.48 
freq.     125.51  E(vib)   ...       0.43 
freq.     144.29  E(vib)   ...       0.41 
freq.     202.10  E(vib)   ...       0.35 
freq.     229.42  E(vib)   ...       0.32 
freq.     270.18  E(vib)   ...       0.29 
freq.     280.63  E(vib)   ...       0.28 
freq.     294.48  E(vib)   ...       0.27 
freq.     318.08  E(vib)   ...       0.25 
freq.     344.97  E(vib)   ...       0.23 
freq.     396.44  E(vib)   ...       0.20 
freq.     434.03  E(vib)   ...       0.17 
freq.     493.61  E(vib)   ...       0.14 
freq.     513.30  E(vib)   ...       0.13 
freq.     533.31  E(vib)   ...       0.13 
freq.     587.13  E(vib)   ...       0.10 
freq.     612.02  E(vib)   ...       0.10 
freq.     660.19  E(vib)   ...       0.08 
freq.     683.76  E(vib)   ...       0.07 
freq.     711.38  E(vib)   ...       0.07 
freq.     756.31  E(vib)   ...       0.06 
freq.     796.93  E(vib)   ...       0.05 
freq.     873.75  E(vib)   ...       0.04 
freq.     875.44  E(vib)   ...       0.04 
freq.     897.70  E(vib)   ...       0.03 
freq.     916.59  E(vib)   ...       0.03 
freq.     982.46  E(vib)   ...       0.02 
freq.    1047.72  E(vib)   ...       0.02 
freq.    1057.80  E(vib)   ...       0.02 
freq.    1061.33  E(vib)   ...       0.02 
freq.    1116.11  E(vib)   ...       0.01 
freq.    1137.91  E(vib)   ...       0.01 
freq.    1148.73  E(vib)   ...       0.01 
freq.    1200.24  E(vib)   ...       0.01 
freq.    1261.09  E(vib)   ...       0.01 
freq.    1286.16  E(vib)   ...       0.01 
freq.    1298.97  E(vib)   ...       0.01 
freq.    1319.72  E(vib)   ...       0.01 
freq.    1330.63  E(vib)   ...       0.01 
freq.    1344.23  E(vib)   ...       0.01 
freq.    1404.42  E(vib)   ...       0.00 
freq.    1421.65  E(vib)   ...       0.00 
freq.    1450.03  E(vib)   ...       0.00 
freq.    1468.48  E(vib)   ...       0.00 
freq.    1473.06  E(vib)   ...       0.00 
freq.    1506.43  E(vib)   ...       0.00 
freq.    1553.59  E(vib)   ...       0.00 
freq.    1562.31  E(vib)   ...       0.00 
freq.    1605.38  E(vib)   ...       0.00 
freq.    1635.56  E(vib)   ...       0.00 
freq.    1665.41  E(vib)   ...       0.00 
freq.    1734.92  E(vib)   ...       0.00 
freq.    1818.31  E(vib)   ...       0.00 
freq.    1838.54  E(vib)   ...       0.00 
freq.    3107.38  E(vib)   ...       0.00 
freq.    3123.96  E(vib)   ...       0.00 
freq.    3130.36  E(vib)   ...       0.00 
freq.    3149.41  E(vib)   ...       0.00 
freq.    3171.58  E(vib)   ...       0.00 
freq.    3182.23  E(vib)   ...       0.00 
freq.    3204.29  E(vib)   ...       0.00 
freq.    3387.65  E(vib)   ...       0.00 
freq.    3551.00  E(vib)   ...       0.00 
freq.    3659.50  E(vib)   ...       0.00 
freq.    3677.72  E(vib)   ...       0.00 
freq.    3801.56  E(vib)   ...       0.00 

------------
INNER ENERGY
------------

The inner energy is: U= E(el) + E(ZPE) + E(vib) + E(rot) + E(trans)
    E(el)   - is the total energy from the electronic structure calculation
              = E(kin-el) + E(nuc-el) + E(el-el) + E(nuc-nuc)
    E(ZPE)  - the the zero temperature vibrational energy from the frequency calculation
    E(vib)  - the the finite temperature correction to E(ZPE) due to population
              of excited vibrational states
    E(rot)  - is the rotational thermal energy
    E(trans)- is the translational thermal energy

Summary of contributions to the inner energy U:
Electronic energy                ...   -701.35223860 Eh
Zero point energy                ...      0.20982607 Eh     131.67 kcal/mol
Thermal vibrational correction   ...      0.01034060 Eh       6.49 kcal/mol
Thermal rotational correction    ...      0.00141627 Eh       0.89 kcal/mol
Thermal translational correction ...      0.00141627 Eh       0.89 kcal/mol
-----------------------------------------------------------------------
Total thermal energy                   -701.12923940 Eh


Summary of corrections to the electronic energy:
(perhaps to be used in another calculation)
Total thermal correction                  0.01317314 Eh       8.27 kcal/mol
Non-thermal (ZPE) correction              0.20982607 Eh     131.67 kcal/mol
-----------------------------------------------------------------------
Total correction                          0.22299920 Eh     139.93 kcal/mol


--------
ENTHALPY
--------

The enthalpy is H = U + kB*T
                kB is Boltzmann's constant
Total free energy                 ...   -701.12923940 Eh 
Thermal Enthalpy correction       ...      0.00094421 Eh       0.59 kcal/mol
-----------------------------------------------------------------------
Total Enthalpy                    ...   -701.12829519 Eh


Note: Only C1 symmetry has been detected, increase convergence thresholds 
      if your molecule has a higher symmetry. Symmetry factor of 1.0 is   
      used for the rotational entropy correction. 
 

Note: Rotational entropy computed according to Herzberg 
Infrared and Raman Spectra, Chapter V,1, Van Nostrand Reinhold, 1945 
Point Group:  C1, Symmetry Number:   1  
Rotational constants in cm-1:     0.042187     0.019975     0.016196 

Vibrational entropy computed according to the QRRHO of S. Grimme
Chem.Eur.J. 2012 18 9955


-------
ENTROPY
-------

The entropy contributions are T*S = T*(S(el)+S(vib)+S(rot)+S(trans))
     S(el)   - electronic entropy
     S(vib)  - vibrational entropy
     S(rot)  - rotational entropy
     S(trans)- translational entropy
The entropies will be listed as multiplied by the temperature to get
units of energy

Electronic entropy                ...      0.00000000 Eh      0.00 kcal/mol
Vibrational entropy               ...      0.01802531 Eh     11.31 kcal/mol
Rotational entropy                ...      0.01479914 Eh      9.29 kcal/mol
Translational entropy             ...      0.01978162 Eh     12.41 kcal/mol
-----------------------------------------------------------------------
Final entropy term                ...      0.05260606 Eh     33.01 kcal/mol

In case the symmetry of your molecule has not been determined correctly
or in case you have a reason to use a different symmetry number we print 
out the resulting rotational entropy values for sn=1,12 :
 --------------------------------------------------------
|  sn= 1 | S(rot)=       0.01479914 Eh      9.29 kcal/mol|
|  sn= 2 | S(rot)=       0.01414468 Eh      8.88 kcal/mol|
|  sn= 3 | S(rot)=       0.01376185 Eh      8.64 kcal/mol|
|  sn= 4 | S(rot)=       0.01349023 Eh      8.47 kcal/mol|
|  sn= 5 | S(rot)=       0.01327954 Eh      8.33 kcal/mol|
|  sn= 6 | S(rot)=       0.01310739 Eh      8.22 kcal/mol|
|  sn= 7 | S(rot)=       0.01296185 Eh      8.13 kcal/mol|
|  sn= 8 | S(rot)=       0.01283577 Eh      8.05 kcal/mol|
|  sn= 9 | S(rot)=       0.01272456 Eh      7.98 kcal/mol|
|  sn=10 | S(rot)=       0.01262508 Eh      7.92 kcal/mol|
|  sn=11 | S(rot)=       0.01253509 Eh      7.87 kcal/mol|
|  sn=12 | S(rot)=       0.01245294 Eh      7.81 kcal/mol|
 --------------------------------------------------------


-------------------
GIBBS FREE ENERGY
-------------------

The Gibbs free energy is G = H - T*S

Total enthalpy                    ...   -701.12829519 Eh 
Total entropy correction          ...     -0.05260606 Eh    -33.01 kcal/mol
-----------------------------------------------------------------------
Final Gibbs free energy         ...   -701.18090125 Eh

For completeness - the Gibbs free energy minus the electronic energy
G-E(el)                           ...      0.17133735 Eh    107.52 kcal/mol


Timings for individual modules:

Sum of individual times         ...     8899.910 sec (= 148.332 min)
GTO integral calculation        ...       23.910 sec (=   0.398 min)   0.3 %
SCF iterations                  ...     2680.084 sec (=  44.668 min)  30.1 %
SCF Gradient evaluation         ...      565.596 sec (=   9.427 min)   6.4 %
Geometry relaxation             ...        0.956 sec (=   0.016 min)   0.0 %
Analytical frequency calculation...     5124.580 sec (=  85.410 min)  57.6 %
CHELPG charge generation        ...      504.785 sec (=   8.413 min)   5.7 %
                             ****ORCA TERMINATED NORMALLY****
TOTAL RUN TIME: 0 days 2 hours 28 minutes 56 seconds 831 msec
