
Lmod is automatically replacing "intel/2020.1.217" with "gcc/10.3.0".


Due to MODULEPATH changes, the following have been reloaded:
  1) blis/0.8.1     2) flexiblas/3.0.4

The following have been reloaded with a version change:
  1) gcccore/.9.3.0 => gcccore/.10.3.0        3) openmpi/4.0.3 => openmpi/4.1.1
  2) libfabric/1.10.1 => libfabric/1.12.1     4) ucx/1.8.0 => ucx/1.9.0

To execute ORCA, run: 
   ${EBROOTORCA}/orca orca.inp > orca.out

                                 *****************
                                 * O   R   C   A *
                                 *****************

                                            #,                                       
                                            ###                                      
                                            ####                                     
                                            #####                                    
                                            ######                                   
                                           ########,                                 
                                     ,,################,,,,,                         
                               ,,#################################,,                 
                          ,,##########################################,,             
                       ,#########################################, ''#####,          
                    ,#############################################,,   '####,        
                  ,##################################################,,,,####,       
                ,###########''''           ''''###############################       
              ,#####''   ,,,,##########,,,,          '''####'''          '####       
            ,##' ,,,,###########################,,,                        '##       
           ' ,,###''''                  '''############,,,                           
         ,,##''                                '''############,,,,        ,,,,,,###''
      ,#''                                            '''#######################'''  
     '                                                          ''''####''''         
             ,#######,   #######,   ,#######,      ##                                
            ,#'     '#,  ##    ##  ,#'     '#,    #''#        ######   ,####,        
            ##       ##  ##   ,#'  ##            #'  '#       #        #'  '#        
            ##       ##  #######   ##           ,######,      #####,   #    #        
            '#,     ,#'  ##    ##  '#,     ,#' ,#      #,         ##   #,  ,#        
             '#######'   ##     ##  '#######'  #'      '#     #####' # '####'        



                  #######################################################
                  #                        -***-                        #
                  #          Department of theory and spectroscopy      #
                  #    Directorship and core code : Frank Neese         #
                  #        Max Planck Institute fuer Kohlenforschung    #
                  #                Kaiser Wilhelm Platz 1               #
                  #                 D-45470 Muelheim/Ruhr               #
                  #                      Germany                        #
                  #                                                     #
                  #                  All rights reserved                #
                  #                        -***-                        #
                  #######################################################


                         Program Version 5.0.2 -  RELEASE  -


 With contributions from (in alphabetic order):
   Daniel Aravena         : Magnetic Suceptibility
   Michael Atanasov       : Ab Initio Ligand Field Theory (pilot matlab implementation)
   Alexander A. Auer      : GIAO ZORA, VPT2 properties, NMR spectrum
   Ute Becker             : Parallelization
   Giovanni Bistoni       : ED, misc. LED, open-shell LED, HFLD
   Martin Brehm           : Molecular dynamics
   Dmytro Bykov           : SCF Hessian
   Vijay G. Chilkuri      : MRCI spin determinant printing, contributions to CSF-ICE
   Dipayan Datta          : RHF DLPNO-CCSD density
   Achintya Kumar Dutta   : EOM-CC, STEOM-CC
   Dmitry Ganyushin       : Spin-Orbit,Spin-Spin,Magnetic field MRCI
   Miquel Garcia          : C-PCM and meta-GGA Hessian, CC/C-PCM, Gaussian charge scheme
   Yang Guo               : DLPNO-NEVPT2, F12-NEVPT2, CIM, IAO-localization
   Andreas Hansen         : Spin unrestricted coupled pair/coupled cluster methods
   Benjamin Helmich-Paris : MC-RPA, TRAH-SCF, COSX integrals
   Lee Huntington         : MR-EOM, pCC
   Robert Izsak           : Overlap fitted RIJCOSX, COSX-SCS-MP3, EOM
   Marcus Kettner         : VPT2
   Christian Kollmar      : KDIIS, OOCD, Brueckner-CCSD(T), CCSD density, CASPT2, CASPT2-K
   Simone Kossmann        : Meta GGA functionals, TD-DFT gradient, OOMP2, MP2 Hessian
   Martin Krupicka        : Initial AUTO-CI
   Lucas Lang             : DCDCAS
   Marvin Lechner         : AUTO-CI (C++ implementation), FIC-MRCC
   Dagmar Lenk            : GEPOL surface, SMD
   Dimitrios Liakos       : Extrapolation schemes; Compound Job, initial MDCI parallelization
   Dimitrios Manganas     : Further ROCIS development; embedding schemes
   Dimitrios Pantazis     : SARC Basis sets
   Anastasios Papadopoulos: AUTO-CI, single reference methods and gradients
   Taras Petrenko         : DFT Hessian,TD-DFT gradient, ASA, ECA, R-Raman, ABS, FL, XAS/XES, NRVS
   Peter Pinski           : DLPNO-MP2, DLPNO-MP2 Gradient
   Christoph Reimann      : Effective Core Potentials
   Marius Retegan         : Local ZFS, SOC
   Christoph Riplinger    : Optimizer, TS searches, QM/MM, DLPNO-CCSD(T), (RO)-DLPNO pert. Triples
   Tobias Risthaus        : Range-separated hybrids, TD-DFT gradient, RPA, STAB
   Michael Roemelt        : Original ROCIS implementation
   Masaaki Saitow         : Open-shell DLPNO-CCSD energy and density
   Barbara Sandhoefer     : DKH picture change effects
   Avijit Sen             : IP-ROCIS
   Kantharuban Sivalingam : CASSCF convergence, NEVPT2, FIC-MRCI
   Bernardo de Souza      : ESD, SOC TD-DFT
   Georgi Stoychev        : AutoAux, RI-MP2 NMR, DLPNO-MP2 response
   Willem Van den Heuvel  : Paramagnetic NMR
   Boris Wezisla          : Elementary symmetry handling
   Frank Wennmohs         : Technical directorship


 We gratefully acknowledge several colleagues who have allowed us to
 interface, adapt or use parts of their codes:
   Stefan Grimme, W. Hujo, H. Kruse, P. Pracht,  : VdW corrections, initial TS optimization,
                  C. Bannwarth, S. Ehlert          DFT functionals, gCP, sTDA/sTD-DF
   Ed Valeev, F. Pavosevic, A. Kumar             : LibInt (2-el integral package), F12 methods
   Garnet Chan, S. Sharma, J. Yang, R. Olivares  : DMRG
   Ulf Ekstrom                                   : XCFun DFT Library
   Mihaly Kallay                                 : mrcc  (arbitrary order and MRCC methods)
   Jiri Pittner, Ondrej Demel                    : Mk-CCSD
   Frank Weinhold                                : gennbo (NPA and NBO analysis)
   Christopher J. Cramer and Donald G. Truhlar   : smd solvation model
   Lars Goerigk                                  : TD-DFT with DH, B97 family of functionals
   V. Asgeirsson, H. Jonsson                     : NEB implementation
   FAccTs GmbH                                   : IRC, NEB, NEB-TS, DLPNO-Multilevel, CI-OPT
                                                   MM, QMMM, 2- and 3-layer-ONIOM, Crystal-QMMM,
                                                   LR-CPCM, SF, NACMEs, symmetry and pop. for TD-DFT,
                                                   nearIR, NL-DFT gradient (VV10), updates on ESD,
                                                   ML-optimized integration grids
   S Lehtola, MJT Oliveira, MAL Marques          : LibXC Library
   Liviu Ungur et al                             : ANISO software


 Your calculation uses the libint2 library for the computation of 2-el integrals
 For citations please refer to: http://libint.valeyev.net

 Your ORCA version has been built with support for libXC version: 5.1.0
 For citations please refer to: https://tddft.org/programs/libxc/

 This ORCA versions uses:
   CBLAS   interface :  Fast vector & matrix operations
   LAPACKE interface :  Fast linear algebra routines
   SCALAPACK package :  Parallel linear algebra routines
   Shared memory     :  Shared parallel matrices
   BLAS/LAPACK       :  OpenBLAS 0.3.15  USE64BITINT DYNAMIC_ARCH NO_AFFINITY Zen SINGLE_THREADED
        Core in use  :  Zen
   Copyright (c) 2011-2014, The OpenBLAS Project


Your calculation utilizes the atom-pairwise dispersion correction
with the Becke-Johnson damping scheme (D3BJ)
Cite in your paper:
S.Grimme, S.Ehrlich, L.Goerigk, J Comput Chem, (2011), 32, 1456–1465 
S.Grimme, J.Antony, S.Ehrlich and H.Krieg, J.Chem.Phys., 132, (2010), 154104 
   

================================================================================

----- Orbital basis set information -----
Your calculation utilizes the basis: def2-TZVPP
   F. Weigend and R. Ahlrichs, Phys. Chem. Chem. Phys. 7, 3297 (2005).

----- AuxJ basis set information -----
Your calculation utilizes the auxiliary basis: def2/J
   F. Weigend, Phys. Chem. Chem. Phys. 8, 1057 (2006).

================================================================================
                                        WARNINGS
                       Please study these warnings very carefully!
================================================================================


WARNING: Geometry Optimization
  ===> : Switching off AutoStart
         For restart on a previous wavefunction, please use MOREAD

INFO   : the flag for use of the SHARK integral package has been found!

================================================================================
                                       INPUT FILE
================================================================================
NAME = GGG-H_tt_019_OptFreq.inp
|  1> # GGG-H_tt_019 (old 089)
|  2> ! wB97X-D3BJ Opt Freq def2-TZVPP def2/J RIJCOSX VeryTightSCF
|  3> ! PAL8 defgrid3 VeryTightOpt
|  4> 
|  5> %maxcore 4096
|  6> 
|  7> %geom
|  8>   MaxIter 300
|  9>   # MaxStep 0.1
| 10>   Calc_Hess true
| 11>   Recalc_Hess 10
| 12> end
| 13> 
| 14> %chelpg
| 15>   grid 0.1
| 16>   rmax 3.0
| 17> end
| 18> 
| 19> * xyz 1 1 
| 20>  N   -2.477079   +0.107818   -1.824315
| 21>  H   -2.978688   -0.015418   -0.945685
| 22>  C   -2.650296   -0.910001   -2.834217
| 23>  C   -1.711953   -2.104527   -2.552142
| 24>  H   -3.699245   -1.251751   -2.864967
| 25>  H   -2.393259   -0.486898   -3.821125
| 26>  O   -1.001046   -2.179963   -1.562680
| 27>  C   -1.273750   +0.783229   -1.810408
| 28>  C   -0.781548   +1.181414   -0.408983
| 29>  O   -0.556139   +0.872985   -2.795653
| 30>  N   +0.000000   +0.000000   +0.000000
| 31>  H   -1.593754   +1.366427   +0.313608
| 32>  H   -0.112347   +2.050428   -0.459376
| 33>  H   -0.455297   -0.900510   -0.230216
| 34>  C   +1.334514   +0.000000   +0.000000
| 35>  C   +2.034672   -1.385310   +0.017375
| 36>  O   +2.081119   +0.995501   +0.000000
| 37>  H   +1.720548   -2.009662   -0.833019
| 38>  H   +1.843402   -1.929040   +0.954712
| 39>  O   -1.694217   -3.084713   -3.461838
| 40>  H   -2.295507   -2.891838   -4.209308
| 41>  N   +3.483147   -1.014506   -0.078654
| 42>  H   +3.361690   +0.086565   -0.035578
| 43>  H   +4.063933   -1.362737   +0.695898
| 44>  H   +3.921865   -1.287375   -0.969176
| 45> *
| 46> 
| 47>                          ****END OF INPUT****
================================================================================

                       *****************************
                       * Geometry Optimization Run *
                       *****************************

Geometry optimization settings:
Update method            Update   .... BFGS
Choice of coordinates    CoordSys .... Z-matrix Internals
Initial Hessian          InHess   .... Almoef's Model

Convergence Tolerances:
Energy Change            TolE     ....  2.0000e-07 Eh
Max. Gradient            TolMAXG  ....  3.0000e-05 Eh/bohr
RMS Gradient             TolRMSG  ....  8.0000e-06 Eh/bohr
Max. Displacement        TolMAXD  ....  2.0000e-04 bohr
RMS Displacement         TolRMSD  ....  1.0000e-04 bohr
Strict Convergence                ....  False
------------------------------------------------------------------------------
                        ORCA OPTIMIZATION COORDINATE SETUP
------------------------------------------------------------------------------

The optimization will be done in new redundant internal coordinates
Making redundant internal coordinates   ...  (new redundants) done
Evaluating the initial hessian          ...  (Is done on the fly) done
Evaluating the coordinates              ...  done
Calculating the B-matrix                .... done
Calculating the G-matrix                .... done
Diagonalizing the G-matrix              .... done
Small eigenvalue found = 4.239e-03
Small eigenvalue found = 1.392e-02
Small eigenvalue found = 1.870e-02
Small eigenvalue found = 2.704e-02
The first mode is                       ....   44
The number of degrees of freedom        ....   69

    -----------------------------------------------------------------
                    Redundant Internal Coordinates


    -----------------------------------------------------------------
         Definition                    Initial Value    d2E/dq (diagonal element)
    -----------------------------------------------------------------
      1. B(H   1,N   0)                  1.0192         0.000000   
      2. B(C   2,N   0)                  1.4443         0.000000   
      3. B(C   3,C   2)                  1.5450         0.000000   
      4. B(H   4,C   2)                  1.1036         0.000000   
      5. B(H   5,C   2)                  1.1041         0.000000   
      6. B(O   6,C   3)                  1.2207         0.000000   
      7. B(C   7,N   0)                  1.3800         0.000000   
      8. B(C   8,C   7)                  1.5378         0.000000   
      9. B(O   9,C   7)                  1.2222         0.000000   
     10. B(N  10,C   8)                  1.4744         0.000000   
     11. B(H  11,C   8)                  1.1027         0.000000   
     12. B(H  12,C   8)                  1.0980         0.000000   
     13. B(H  13,N  10)                  1.0350         0.000000   
     14. B(C  14,N  10)                  1.3345         0.000000   
     15. B(C  15,C  14)                  1.5523         0.000000   
     16. B(O  16,C  14)                  1.2444         0.000000   
     17. B(H  17,C  15)                  1.1008         0.000000   
     18. B(H  18,C  15)                  1.1004         0.000000   
     19. B(O  19,C   3)                  1.3374         0.000000   
     20. B(H  20,O  19)                  0.9785         0.000000   
     21. B(N  21,C  15)                  1.4983         0.000000   
     22. B(H  22,N  21)                  1.1086         0.000000   
     23. B(H  23,N  21)                  1.0288         0.000000   
     24. B(H  24,N  21)                  1.0295         0.000000   
     25. A(H   1,N   0,C   2)          117.2948         0.000000   
     26. A(C   2,N   0,C   7)          117.1647         0.000000   
     27. A(H   1,N   0,C   7)          118.6620         0.000000   
     28. A(C   3,C   2,H   5)          108.5472         0.000000   
     29. A(C   3,C   2,H   4)          110.0550         0.000000   
     30. A(N   0,C   2,H   4)          110.5914         0.000000   
     31. A(N   0,C   2,C   3)          110.1434         0.000000   
     32. A(N   0,C   2,H   5)          109.0896         0.000000   
     33. A(H   4,C   2,H   5)          108.3619         0.000000   
     34. A(O   6,C   3,O  19)          119.8898         0.000000   
     35. A(C   2,C   3,O  19)          116.7775         0.000000   
     36. A(C   2,C   3,O   6)          123.3311         0.000000   
     37. A(C   8,C   7,O   9)          121.8504         0.000000   
     38. A(N   0,C   7,O   9)          122.6707         0.000000   
     39. A(N   0,C   7,C   8)          114.5199         0.000000   
     40. A(C   7,C   8,H  11)          113.8823         0.000000   
     41. A(C   7,C   8,N  10)          102.4141         0.000000   
     42. A(H  11,C   8,H  12)          110.2545         0.000000   
     43. A(N  10,C   8,H  12)          108.8959         0.000000   
     44. A(C   7,C   8,H  12)          110.9890         0.000000   
     45. A(N  10,C   8,H  11)          110.0655         0.000000   
     46. A(H  13,N  10,C  14)          116.0977         0.000000   
     47. A(C   8,N  10,C  14)          122.0110         0.000000   
     48. A(C   8,N  10,H  13)          113.7213         0.000000   
     49. A(C  15,C  14,O  16)          116.3163         0.000000   
     50. A(N  10,C  14,O  16)          126.8691         0.000000   
     51. A(N  10,C  14,C  15)          116.8110         0.000000   
     52. A(H  17,C  15,H  18)          109.1603         0.000000   
     53. A(C  14,C  15,H  18)          111.8458         0.000000   
     54. A(C  14,C  15,H  17)          111.6432         0.000000   
     55. A(H  18,C  15,N  21)          110.1778         0.000000   
     56. A(H  17,C  15,N  21)          111.5153         0.000000   
     57. A(C  14,C  15,N  21)          102.3847         0.000000   
     58. A(C   3,O  19,H  20)          111.5298         0.000000   
     59. A(H  23,N  21,H  24)          108.7188         0.000000   
     60. A(H  22,N  21,H  24)          110.0926         0.000000   
     61. A(C  15,N  21,H  24)          113.6915         0.000000   
     62. A(H  22,N  21,H  23)          111.6398         0.000000   
     63. A(C  15,N  21,H  23)          114.4392         0.000000   
     64. A(C  15,N  21,H  22)           97.8975         0.000000   
     65. D(H   4,C   2,N   0,C   7)   -169.9334         0.000000   
     66. D(H   5,C   2,N   0,C   7)    -50.8473         0.000000   
     67. D(H   5,C   2,N   0,H   1)    158.5252         0.000000   
     68. D(H   4,C   2,N   0,H   1)     39.4391         0.000000   
     69. D(C   3,C   2,N   0,H   1)    -82.4316         0.000000   
     70. D(C   3,C   2,N   0,C   7)     68.1960         0.000000   
     71. D(O   6,C   3,C   2,H   4)   -118.0058         0.000000   
     72. D(O  19,C   3,C   2,H   5)    -55.9808         0.000000   
     73. D(O  19,C   3,C   2,H   4)     62.4571         0.000000   
     74. D(O   6,C   3,C   2,H   5)    123.5563         0.000000   
     75. D(O  19,C   3,C   2,N   0)   -175.3547         0.000000   
     76. D(O   6,C   3,C   2,N   0)      4.1824         0.000000   
     77. D(O   9,C   7,N   0,H   1)    173.4937         0.000000   
     78. D(C   8,C   7,N   0,C   2)   -145.6934         0.000000   
     79. D(C   8,C   7,N   0,H   1)      4.5218         0.000000   
     80. D(O   9,C   7,N   0,C   2)     23.2784         0.000000   
     81. D(H  12,C   8,C   7,O   9)     35.9512         0.000000   
     82. D(H  12,C   8,C   7,N   0)   -154.9765         0.000000   
     83. D(H  11,C   8,C   7,O   9)    161.0774         0.000000   
     84. D(N  10,C   8,C   7,O   9)    -80.1283         0.000000   
     85. D(N  10,C   8,C   7,N   0)     88.9440         0.000000   
     86. D(H  11,C   8,C   7,N   0)    -29.8503         0.000000   
     87. D(C  14,N  10,C   8,H  12)    -13.1689         0.000000   
     88. D(C  14,N  10,C   8,H  11)   -134.1386         0.000000   
     89. D(C  14,N  10,C   8,C   7)    104.4121         0.000000   
     90. D(H  13,N  10,C   8,H  12)   -160.4523         0.000000   
     91. D(H  13,N  10,C   8,H  11)     78.5780         0.000000   
     92. D(H  13,N  10,C   8,C   7)    -42.8713         0.000000   
     93. D(O  16,C  14,N  10,C   8)     19.0949         0.000000   
     94. D(C  15,C  14,N  10,H  13)    -15.0591         0.000000   
     95. D(C  15,C  14,N  10,C   8)   -161.6237         0.000000   
     96. D(O  16,C  14,N  10,H  13)    165.6594         0.000000   
     97. D(N  21,C  15,C  14,O  16)     -4.2211         0.000000   
     98. D(N  21,C  15,C  14,N  10)    176.4203         0.000000   
     99. D(H  18,C  15,C  14,O  16)    113.7163         0.000000   
    100. D(H  18,C  15,C  14,N  10)    -65.6423         0.000000   
    101. D(H  17,C  15,C  14,O  16)   -123.6339         0.000000   
    102. D(H  17,C  15,C  14,N  10)     57.0074         0.000000   
    103. D(H  20,O  19,C   3,O   6)   -178.9529         0.000000   
    104. D(H  20,O  19,C   3,C   2)      0.6010         0.000000   
    105. D(H  24,N  21,C  15,H  18)    129.0345         0.000000   
    106. D(H  24,N  21,C  15,H  17)      7.6530         0.000000   
    107. D(H  24,N  21,C  15,C  14)   -111.8494         0.000000   
    108. D(H  23,N  21,C  15,H  18)      3.2768         0.000000   
    109. D(H  23,N  21,C  15,H  17)   -118.1046         0.000000   
    110. D(H  23,N  21,C  15,C  14)    122.3929         0.000000   
    111. D(H  22,N  21,C  15,H  18)   -114.8861         0.000000   
    112. D(H  22,N  21,C  15,H  17)    123.7324         0.000000   
    113. D(H  22,N  21,C  15,C  14)      4.2300         0.000000   
    -----------------------------------------------------------------

Number of atoms                         .... 25
Number of degrees of freedom            .... 113

         *************************************************************
         *                GEOMETRY OPTIMIZATION CYCLE   1            *
         *************************************************************
---------------------------------
CARTESIAN COORDINATES (ANGSTROEM)
---------------------------------
  N     -2.477079    0.107818   -1.824315
  H     -2.978688   -0.015418   -0.945685
  C     -2.650296   -0.910001   -2.834217
  C     -1.711953   -2.104527   -2.552142
  H     -3.699245   -1.251751   -2.864967
  H     -2.393259   -0.486898   -3.821125
  O     -1.001046   -2.179963   -1.562680
  C     -1.273750    0.783229   -1.810408
  C     -0.781548    1.181414   -0.408983
  O     -0.556139    0.872985   -2.795653
  N      0.000000    0.000000    0.000000
  H     -1.593754    1.366427    0.313608
  H     -0.112347    2.050428   -0.459376
  H     -0.455297   -0.900510   -0.230216
  C      1.334514    0.000000    0.000000
  C      2.034672   -1.385310    0.017375
  O      2.081119    0.995501    0.000000
  H      1.720548   -2.009662   -0.833019
  H      1.843402   -1.929040    0.954712
  O     -1.694217   -3.084713   -3.461838
  H     -2.295507   -2.891838   -4.209308
  N      3.483147   -1.014506   -0.078654
  H      3.361690    0.086565   -0.035578
  H      4.063933   -1.362737    0.695898
  H      3.921865   -1.287375   -0.969176

----------------------------
CARTESIAN COORDINATES (A.U.)
----------------------------
  NO LB      ZA    FRAG     MASS         X           Y           Z
   0 N     7.0000    0    14.007   -4.681001    0.203746   -3.447456
   1 H     1.0000    0     1.008   -5.628905   -0.029136   -1.787086
   2 C     6.0000    0    12.011   -5.008334   -1.719653   -5.355894
   3 C     6.0000    0    12.011   -3.235122   -3.976980   -4.822849
   4 H     1.0000    0     1.008   -6.990560   -2.365467   -5.414003
   5 H     1.0000    0     1.008   -4.522604   -0.920104   -7.220880
   6 O     8.0000    0    15.999   -1.891703   -4.119533   -2.953037
   7 C     6.0000    0    12.011   -2.407039    1.480088   -3.421175
   8 C     6.0000    0    12.011   -1.476912    2.232549   -0.772866
   9 O     8.0000    0    15.999   -1.050950    1.649703   -5.283019
  10 N     7.0000    0    14.007    0.000000    0.000000    0.000000
  11 H     1.0000    0     1.008   -3.011759    2.582173    0.592633
  12 H     1.0000    0     1.008   -0.212305    3.874747   -0.868095
  13 H     1.0000    0     1.008   -0.860387   -1.701717   -0.435045
  14 C     6.0000    0    12.011    2.521866    0.000000    0.000000
  15 C     6.0000    0    12.011    3.844973   -2.617857    0.032834
  16 O     8.0000    0    15.999    3.932745    1.881224    0.000000
  17 H     1.0000    0     1.008    3.251365   -3.797711   -1.574178
  18 H     1.0000    0     1.008    3.483525   -3.645357    1.804144
  19 O     8.0000    0    15.999   -3.201606   -5.829263   -6.541926
  20 H     1.0000    0     1.008   -4.337880   -5.464782   -7.954439
  21 N     7.0000    0    14.007    6.582194   -1.917139   -0.148635
  22 H     1.0000    0     1.008    6.352673    0.163584   -0.067233
  23 H     1.0000    0     1.008    7.679720   -2.575200    1.315057
  24 H     1.0000    0     1.008    7.411251   -2.432786   -1.831477

--------------------------------
INTERNAL COORDINATES (ANGSTROEM)
--------------------------------
 N      0   0   0     0.000000000000     0.00000000     0.00000000
 H      1   0   0     1.019210173358     0.00000000     0.00000000
 C      1   2   0     1.444251257730   117.29478458     0.00000000
 C      3   1   2     1.544974516279   110.14341416   277.56843152
 H      3   1   2     1.103645155655   110.59136506    39.43910182
 H      3   1   2     1.104115740510   109.08960183   158.52518941
 O      4   3   1     1.220702421636   123.33110201     4.18239603
 C      1   2   3     1.379990618016   118.66201366   209.82306246
 C      8   1   2     1.537792617245   114.51994686     4.52183950
 O      8   1   2     1.222182227363   122.67066388   173.49370376
 N      9   8   1     1.474389165041   102.41414632    88.94399844
 H      9   8   1     1.102744825373   113.88229454   330.14965547
 H      9   8   1     1.097977579482   110.98901611   205.02346111
 H     11   9   8     1.034994214943   113.72125267   317.12872354
 C     11   9   8     1.334514000000   122.01103402   104.41214538
 C     15  11   9     1.552290859243   116.81095537   198.37629359
 O     15  11   9     1.244363800111   126.86913331    19.09487786
 H     16  15  11     1.100753951851   111.64321867    57.00742545
 H     16  15  11     1.100375925477   111.84577746   294.35768052
 O      4   3   1     1.337395219338   116.77750123   184.64534020
 H     20   4   3     0.978499785705   111.52984222     0.60096541
 N     16  15  11     1.498264663163   102.38474706   176.42026291
 H     22  16  15     1.108586799338    97.89749794     4.22995464
 H     22  16  15     1.028838183516   114.43919791   122.39293318
 H     22  16  15     1.029543785941   113.69151987   248.15057255

---------------------------
INTERNAL COORDINATES (A.U.)
---------------------------
 N      0   0   0     0.000000000000     0.00000000     0.00000000
 H      1   0   0     1.926028100554     0.00000000     0.00000000
 C      1   2   0     2.729239345681   117.29478458     0.00000000
 C      3   1   2     2.919578719654   110.14341416   277.56843152
 H      3   1   2     2.085587093217   110.59136506    39.43910182
 H      3   1   2     2.086476369716   109.08960183   158.52518941
 O      4   3   1     2.306793267907   123.33110201     4.18239603
 C      1   2   3     2.607804335430   118.66201366   209.82306246
 C      8   1   2     2.906006897360   114.51994686     4.52183950
 O      8   1   2     2.309589695462   122.67066388   173.49370376
 N      9   8   1     2.786191736747   102.41414632    88.94399844
 H      9   8   1     2.083885715553   113.88229454   330.14965547
 H      9   8   1     2.074876926407   110.98901611   205.02346111
 H     11   9   8     1.955855616435   113.72125267   317.12872354
 C     11   9   8     2.521865981884   122.01103402   104.41214538
 C     15  11   9     2.933404604158   116.81095537   198.37629359
 O     15  11   9     2.351506793175   126.86913331    19.09487786
 H     16  15  11     2.080123509830   111.64321867    57.00742545
 H     16  15  11     2.079409143511   111.84577746   294.35768052
 O      4   3   1     2.527310697364   116.77750123   184.64534020
 H     20   4   3     1.849096617083   111.52984222     0.60096541
 N     16  15  11     2.831309889509   102.38474706   176.42026291
 H     22  16  15     2.094925446429    97.89749794     4.22995464
 H     22  16  15     1.944222402967   114.43919791   122.39293318
 H     22  16  15     1.945555798308   113.69151987   248.15057255

---------------------
BASIS SET INFORMATION
---------------------
There are 4 groups of distinct atoms

 Group   1 Type N   : 11s6p2d1f contracted to 5s3p2d1f pattern {62111/411/11/1}
 Group   2 Type H   : 5s2p1d contracted to 3s2p1d pattern {311/11/1}
 Group   3 Type C   : 11s6p2d1f contracted to 5s3p2d1f pattern {62111/411/11/1}
 Group   4 Type O   : 11s6p2d1f contracted to 5s3p2d1f pattern {62111/411/11/1}

Atom   0N    basis set group =>   1
Atom   1H    basis set group =>   2
Atom   2C    basis set group =>   3
Atom   3C    basis set group =>   3
Atom   4H    basis set group =>   2
Atom   5H    basis set group =>   2
Atom   6O    basis set group =>   4
Atom   7C    basis set group =>   3
Atom   8C    basis set group =>   3
Atom   9O    basis set group =>   4
Atom  10N    basis set group =>   1
Atom  11H    basis set group =>   2
Atom  12H    basis set group =>   2
Atom  13H    basis set group =>   2
Atom  14C    basis set group =>   3
Atom  15C    basis set group =>   3
Atom  16O    basis set group =>   4
Atom  17H    basis set group =>   2
Atom  18H    basis set group =>   2
Atom  19O    basis set group =>   4
Atom  20H    basis set group =>   2
Atom  21N    basis set group =>   1
Atom  22H    basis set group =>   2
Atom  23H    basis set group =>   2
Atom  24H    basis set group =>   2
---------------------------------
AUXILIARY/J BASIS SET INFORMATION
---------------------------------
There are 4 groups of distinct atoms

 Group   1 Type N   : 12s5p4d2f1g contracted to 6s4p3d1f1g pattern {711111/2111/211/2/1}
 Group   2 Type H   : 5s2p1d contracted to 3s1p1d pattern {311/2/1}
 Group   3 Type C   : 12s5p4d2f1g contracted to 6s4p3d1f1g pattern {711111/2111/211/2/1}
 Group   4 Type O   : 12s5p4d2f1g contracted to 6s4p3d1f1g pattern {711111/2111/211/2/1}

Atom   0N    basis set group =>   1
Atom   1H    basis set group =>   2
Atom   2C    basis set group =>   3
Atom   3C    basis set group =>   3
Atom   4H    basis set group =>   2
Atom   5H    basis set group =>   2
Atom   6O    basis set group =>   4
Atom   7C    basis set group =>   3
Atom   8C    basis set group =>   3
Atom   9O    basis set group =>   4
Atom  10N    basis set group =>   1
Atom  11H    basis set group =>   2
Atom  12H    basis set group =>   2
Atom  13H    basis set group =>   2
Atom  14C    basis set group =>   3
Atom  15C    basis set group =>   3
Atom  16O    basis set group =>   4
Atom  17H    basis set group =>   2
Atom  18H    basis set group =>   2
Atom  19O    basis set group =>   4
Atom  20H    basis set group =>   2
Atom  21N    basis set group =>   1
Atom  22H    basis set group =>   2
Atom  23H    basis set group =>   2
Atom  24H    basis set group =>   2


           ************************************************************
           *        Program running with 8 parallel MPI-processes     *
           *              working on a common directory               *
           ************************************************************
------------------------------------------------------------------------------
                           ORCA GTO INTEGRAL CALCULATION
                           -- RI-GTO INTEGRALS CHOSEN --
------------------------------------------------------------------------------
------------------------------------------------------------------------------
                   ___                                                        
                  /   \      - P O W E R E D   B Y -                         
                 /     \                                                     
                 |  |  |   _    _      __       _____    __    __             
                 |  |  |  | |  | |    /  \     |  _  \  |  |  /  |          
                  \  \/   | |  | |   /    \    | | | |  |  | /  /          
                 / \  \   | |__| |  /  /\  \   | |_| |  |  |/  /          
                |  |  |   |  __  | /  /__\  \  |    /   |      \           
                |  |  |   | |  | | |   __   |  |    \   |  |\   \          
                \     /   | |  | | |  |  |  |  | |\  \  |  | \   \       
                 \___/    |_|  |_| |__|  |__|  |_| \__\ |__|  \__/        
                                                                              
                      - O R C A' S   B I G   F R I E N D -                    
                                      &                                       
                       - I N T E G R A L  F E E D E R -                       
                                                                              
 v1 FN, 2020, v2 2021                                                         
------------------------------------------------------------------------------


Reading SHARK input file GGG-H_tt_019_OptFreq.SHARKINP.tmp ... ok
----------------------
SHARK INTEGRAL PACKAGE
----------------------

Number of atoms                             ...     25
Number of basis functions                   ...    571
Number of shells                            ...    215
Maximum angular momentum                    ...      3
Integral batch strategy                     ... SHARK/LIBINT Hybrid
RI-J (if used) integral strategy            ... SPLIT-RIJ (Revised 2003 algorithm where possible)
Printlevel                                  ...      1
Contraction scheme used                     ... SEGMENTED contraction
Coulomb Range Separation                    ... NOT USED
Exchange Range Separation                   ... Long Range
   Mu parameter                             ...  0.300000
   Scaling (regular/separated)              ...  0.167000  0.833000
Finite Nucleus Model                        ... NOT USED
Auxiliary Coulomb fitting basis             ... AVAILABLE
   # of basis functions in Aux-J            ...    769
   # of shells in Aux-J                     ...    255
   Maximum angular momentum in Aux-J        ...      4
Auxiliary J/K fitting basis                 ... NOT available
Auxiliary Correlation fitting basis         ... NOT available
Auxiliary 'external' fitting basis          ... NOT available
Integral threshold                          ...     1.000000e-12
Primitive cut-off                           ...     1.000000e-14
Primitive pair pre-selection threshold      ...     1.000000e-14

Calculating pre-screening integrals         ... done (  0.0 sec) Dimension = 215
Organizing shell pair data                  ... done (  0.2 sec)
Shell pair information
Total number of shell pairs                 ...     23220
Shell pairs after pre-screening             ...     19035
Total number of primitive shell pairs       ...     63868
Primitive shell pairs kept                  ...     38365
          la=0 lb=0:   4184 shell pairs
          la=1 lb=0:   5358 shell pairs
          la=1 lb=1:   1760 shell pairs
          la=2 lb=0:   3003 shell pairs
          la=2 lb=1:   1974 shell pairs
          la=2 lb=2:    562 shell pairs
          la=3 lb=0:   1041 shell pairs
          la=3 lb=1:    690 shell pairs
          la=3 lb=2:    390 shell pairs
          la=3 lb=3:     73 shell pairs

Calculating one electron integrals          ... done (  0.0 sec)
Calculating RI/J V-Matrix + Cholesky decomp.... done (  0.4 sec)
Calculating Nuclear repulsion               ... done (  0.0 sec) ENN=    862.641611523815 Eh

SHARK setup successfully completed in   1.7 seconds

Maximum memory used throughout the entire GTOINT-calculation: 30.9 MB


           ************************************************************
           *        Program running with 8 parallel MPI-processes     *
           *              working on a common directory               *
           ************************************************************
-------------------------------------------------------------------------------
                                 ORCA SCF
-------------------------------------------------------------------------------

------------
SCF SETTINGS
------------
Hamiltonian:
 Density Functional     Method          .... DFT(GTOs)
 Exchange Functional    Exchange        .... WB97X-V
 Correlation Functional Correlation     .... WB97X-V
 Gradients option       PostSCFGGA      .... off
 Hybrid DFT is turned on
   Fraction HF Exchange ScalHFX         ....  0.167000
   Scaling of DF-GGA-X  ScalDFX         ....  0.000000
   Scaling of DF-GGA-C  ScalDFC         ....  1.000000
   Scaling of DF-LDA-C  ScalLDAC        ....  1.000000
   Perturbative correction              ....  0.000000
   Density functional embedding theory  .... OFF
 Long-range corrected/Screened/Range-Separated Hybrid DFT is turned on
   Amount of maximum screened exact exchange              ....  0.833000
   Range separation parameter mu (erf(mu*r12)/r12)        ....  0.300000
 RI-approximation to the Coulomb term is turned on
   Number of AuxJ basis functions       .... 769
   RIJ-COSX (HFX calculated with COS-X)).... on


General Settings:
 Integral files         IntName         .... GGG-H_tt_019_OptFreq
 Hartree-Fock type      HFTyp           .... RHF
 Total Charge           Charge          ....    1
 Multiplicity           Mult            ....    1
 Number of Electrons    NEL             ....  100
 Basis Dimension        Dim             ....  571
 Nuclear Repulsion      ENuc            ....    862.6416115238 Eh

Convergence Acceleration:
 DIIS                   CNVDIIS         .... on
   Start iteration      DIISMaxIt       ....    12
   Startup error        DIISStart       ....  0.200000
   # of expansion vecs  DIISMaxEq       ....     5
   Bias factor          DIISBfac        ....   1.050
   Max. coefficient     DIISMaxC        ....  10.000
 Trust-Rad. Augm. Hess. CNVTRAH         .... auto
   Auto Start mean grad. ratio tolernc. ....  1.125000
   Auto Start start iteration           ....    20
   Auto Start num. interpolation iter.  ....    10
   Max. Number of Micro iterations      ....    16
   Max. Number of Macro iterations      .... Maxiter - #DIIS iter
   Number of Davidson start vectors     ....     2
   Converg. threshold I  (grad. norm)   ....   2.000e-06
   Converg. threshold II (energy diff.) ....   1.000e-09
   Grad. Scal. Fac. for Micro threshold ....   0.100
   Minimum threshold for Micro iter.    ....   0.010
   NR start threshold (gradient norm)   ....   0.001
   Initial trust radius                 ....   0.400
   Minimum AH scaling param. (alpha)    ....   1.000
   Maximum AH scaling param. (alpha)    .... 1000.000
   Orbital update algorithm             .... Taylor
   White noise on init. David. guess    .... on
   Maximum white noise                  ....   0.010
   Quad. conv. algorithm                .... NR
 SOSCF                  CNVSOSCF        .... on
   Start iteration      SOSCFMaxIt      ....   150
   Startup grad/error   SOSCFStart      ....  0.003300
 Level Shifting         CNVShift        .... on
   Level shift para.    LevelShift      ....    0.2500
   Turn off err/grad.   ShiftErr        ....    0.0010
 Zerner damping         CNVZerner       .... off
 Static damping         CNVDamp         .... on
   Fraction old density DampFac         ....    0.7000
   Max. Damping (<1)    DampMax         ....    0.9800
   Min. Damping (>=0)   DampMin         ....    0.0000
   Turn off err/grad.   DampErr         ....    0.1000
 Fernandez-Rico         CNVRico         .... off

SCF Procedure:
 Maximum # iterations   MaxIter         ....   125
 SCF integral mode      SCFMode         .... Direct
   Integral package                     .... SHARK and LIBINT hybrid scheme
 Reset frequency        DirectResetFreq ....    20
 Integral Threshold     Thresh          ....  1.000e-12 Eh
 Primitive CutOff       TCut            ....  1.000e-14 Eh

Convergence Tolerance:
 Convergence Check Mode ConvCheckMode   .... Total+1el-Energy
 Convergence forced     ConvForced      .... 0
 Energy Change          TolE            ....  1.000e-09 Eh
 1-El. energy change                    ....  1.000e-06 Eh
 Orbital Gradient       TolG            ....  2.000e-06
 Orbital Rotation angle TolX            ....  2.000e-06
 DIIS Error             TolErr          ....  1.000e-08


Diagonalization of the overlap matrix:
Smallest eigenvalue                        ... 1.745e-04
Time for diagonalization                   ...    0.045 sec
Threshold for overlap eigenvalues          ... 1.000e-08
Number of eigenvalues below threshold      ... 0
Time for construction of square roots      ...    0.061 sec
Total time needed                          ...    0.108 sec

Time for model grid setup =    0.191 sec

------------------------------
INITIAL GUESS: MODEL POTENTIAL
------------------------------
Loading Hartree-Fock densities                     ... done
Calculating cut-offs                               ... done
Initializing the effective Hamiltonian             ... done
Setting up the integral package (SHARK)            ... done
Starting the Coulomb interaction                   ... done (   0.2 sec)
Reading the grid                                   ... done
Mapping shells                                     ... done
Starting the XC term evaluation                    ... done (   0.1 sec)
  promolecular density results
     # of electrons  =    100.993342458
     EX              =    -58.969801605
     EC              =     -4.268066893
     EX+EC           =    -63.237868498
Transforming the Hamiltonian                       ... done (   0.1 sec)
Diagonalizing the Hamiltonian                      ... done (   0.0 sec)
Back transforming the eigenvectors                 ... done (   0.0 sec)
Now organizing SCF variables                       ... done
                      ------------------
                      INITIAL GUESS DONE (   0.7 sec)
                      ------------------
-------------------
DFT GRID GENERATION
-------------------

General Integration Accuracy     IntAcc      ... 4.959
Radial Grid Type                 RadialGrid  ... OptM3 with GC (2021)
Angular Grid (max. ang.)         AngularGrid ... 6 (Lebedev-590)
Angular grid pruning method      GridPruning ... 4 (adaptive)
Weight generation scheme         WeightScheme... Becke
Basis function cutoff            BFCut       ... 1.0000e-12
Integration weight cutoff        WCut        ... 1.0000e-14
Angular grids for H and He will be reduced by one unit
Partially contracted basis set               ... off
Rotationally invariant grid construction     ... off

Total number of grid points                  ...   289205
Total number of batches                      ...     4533
Average number of points per batch           ...       63
Average number of grid points per atom       ...    11568
Time for grid setup =    3.185 sec

--------------------
COSX GRID GENERATION
--------------------

GRIDX 1
-------
General Integration Accuracy     IntAcc      ... 4.020
Radial Grid Type                 RadialGrid  ... OptM3 with GC (2021)
Angular Grid (max. ang.)         AngularGrid ... 2 (Lebedev-110)
Angular grid pruning method      GridPruning ... 4 (adaptive)
Weight generation scheme         WeightScheme... Becke
Basis function cutoff            BFCut       ... 1.0000e-12
Integration weight cutoff        WCut        ... 1.0000e-14
Angular grids for H and He will be reduced by one unit
Partially contracted basis set               ... on
Rotationally invariant grid construction     ... off

Total number of grid points                  ...    32214
Total number of batches                      ...      516
Average number of points per batch           ...       62
Average number of grid points per atom       ...     1289
UseSFitting                                  ... on

GRIDX 2
-------
General Integration Accuracy     IntAcc      ... 4.338
Radial Grid Type                 RadialGrid  ... OptM3 with GC (2021)
Angular Grid (max. ang.)         AngularGrid ... 3 (Lebedev-194)
Angular grid pruning method      GridPruning ... 4 (adaptive)
Weight generation scheme         WeightScheme... Becke
Basis function cutoff            BFCut       ... 1.0000e-12
Integration weight cutoff        WCut        ... 1.0000e-14
Angular grids for H and He will be reduced by one unit
Partially contracted basis set               ... on
Rotationally invariant grid construction     ... off

Total number of grid points                  ...    70636
Total number of batches                      ...     1117
Average number of points per batch           ...       63
Average number of grid points per atom       ...     2825
UseSFitting                                  ... on

GRIDX 3
-------
General Integration Accuracy     IntAcc      ... 4.871
Radial Grid Type                 RadialGrid  ... OptM3 with GC (2021)
Angular Grid (max. ang.)         AngularGrid ... 4 (Lebedev-302)
Angular grid pruning method      GridPruning ... 4 (adaptive)
Weight generation scheme         WeightScheme... Becke
Basis function cutoff            BFCut       ... 1.0000e-12
Integration weight cutoff        WCut        ... 1.0000e-14
Angular grids for H and He will be reduced by one unit
Partially contracted basis set               ... on
Rotationally invariant grid construction     ... off

Total number of grid points                  ...   133783
Total number of batches                      ...     2101
Average number of points per batch           ...       63
Average number of grid points per atom       ...     5351
UseSFitting                                  ... on

Time for X-Grid setup             =    2.096 sec

--------------
SCF ITERATIONS
--------------
ITER       Energy         Delta-E        Max-DP      RMS-DP      [F,P]     Damp
               ***  Starting incremental Fock matrix formation  ***
  0   -701.1550799914   0.000000000000 0.10750167  0.00054179  0.3427505 0.7000
  1   -701.2011452421  -0.046065250784 0.09597076  0.00049841  0.2343474 0.7000
                               ***Turning on DIIS***
  2   -701.2285581947  -0.027412952517 0.07370141  0.00039037  0.1626635 0.7000
  3   -701.2466337814  -0.018075586773 0.05613354  0.00031022  0.1123163 0.7000
  4   -701.2593016995  -0.012667918040 0.14032378  0.00081081  0.0774944 0.0000
                      *** Initiating the SOSCF procedure ***
                           *** Shutting down DIIS ***
                      *** Re-Reading the Fockian *** 
                      *** Removing any level shift *** 
ITER      Energy       Delta-E        Grad      Rot      Max-DP    RMS-DP
  5   -701.28984075  -0.0305390473  0.001362  0.001362  0.007588  0.000078
               *** Restarting incremental Fock matrix formation ***
  6   -701.28997448  -0.0001337333  0.000874  0.001921  0.003870  0.000045
  7   -701.29001227  -0.0000377913  0.000521  0.001772  0.002508  0.000032
  8   -701.29002019  -0.0000079160  0.000321  0.000458  0.000788  0.000010
  9   -701.29002251  -0.0000023257  0.000092  0.000085  0.000445  0.000005
 10   -701.29002267  -0.0000001579  0.000025  0.000070  0.000140  0.000002
 11   -701.29002280  -0.0000001240  0.000012  0.000035  0.000018  0.000000
 12   -701.29002280  -0.0000000040  0.000003  0.000006  0.000021  0.000000
 13   -701.29002280  -0.0000000019  0.000002  0.000007  0.000008  0.000000
 14   -701.29002280  -0.0000000003  0.000002  0.000002  0.000002  0.000000
                  ***Gradient check signals convergence***
              ***Rediagonalizing the Fockian in SOSCF/NRSCF***

               *****************************************************
               *                     SUCCESS                       *
               *           SCF CONVERGED AFTER  15 CYCLES          *
               *****************************************************

Old exchange energy                            =    -27.827884367 Eh
New exchange energy                            =    -27.827883741 Eh
Exchange energy change after final integration =      0.000000626 Eh
Total energy after final integration           =   -701.290022176 Eh
Final COS-X integration done in                =    31.026 sec

----------------
TOTAL SCF ENERGY
----------------

Total Energy       :         -701.29002218 Eh          -19083.07167 eV

Components:
Nuclear Repulsion  :          862.64161152 Eh           23473.67163 eV
Electronic Energy  :        -1563.93163370 Eh          -42556.74330 eV
One Electron Energy:        -2654.26485273 Eh          -72226.21855 eV
Two Electron Energy:         1090.33321903 Eh           29669.47526 eV
Max COSX asymmetry :            0.00000054 Eh               0.00001 eV

Virial components:
Potential Energy   :        -1399.24154939 Eh          -38075.29827 eV
Kinetic Energy     :          697.95152722 Eh           18992.22660 eV
Virial Ratio       :            2.00478328


DFT components:
N(Alpha)           :       49.999998975234 electrons
N(Beta)            :       49.999998975234 electrons
N(Total)           :       99.999997950468 electrons
E(X)               :      -60.041671095748 Eh       
E(C)               :       -4.265719798415 Eh       
E(XC)              :      -64.307390894163 Eh       
DFET-embed. en.    :        0.000000000000 Eh       

---------------
SCF CONVERGENCE
---------------

  Last Energy change         ...   -1.3870e-10  Tolerance :   1.0000e-09
  Last MAX-Density change    ...    9.9920e-16  Tolerance :   1.0000e-08
  Last RMS-Density change    ...    1.2548e-17  Tolerance :   1.0000e-09
  Last Orbital Gradient      ...    2.8666e-07  Tolerance :   2.0000e-06
  Last Orbital Rotation      ...    7.7790e-07  Tolerance :   2.0000e-06

             **** THE GBW FILE WAS UPDATED (GGG-H_tt_019_OptFreq.gbw) ****
             **** DENSITY GGG-H_tt_019_OptFreq.scfp WAS UPDATED ****
             **** ENERGY FILE WAS UPDATED (GGG-H_tt_019_OptFreq.en.tmp) ****
             **** THE GBW FILE WAS UPDATED (GGG-H_tt_019_OptFreq.gbw) ****
             **** DENSITY GGG-H_tt_019_OptFreq.scfp WAS UPDATED ****
----------------
ORBITAL ENERGIES
----------------

  NO   OCC          E(Eh)            E(eV) 
   0   2.0000     -19.399913      -527.8985 
   1   2.0000     -19.362704      -526.8860 
   2   2.0000     -19.343726      -526.3695 
   3   2.0000     -19.313995      -525.5605 
   4   2.0000     -14.687590      -399.6697 
   5   2.0000     -14.597484      -397.2177 
   6   2.0000     -14.573603      -396.5679 
   7   2.0000     -10.552550      -287.1495 
   8   2.0000     -10.551370      -287.1174 
   9   2.0000     -10.512012      -286.0464 
  10   2.0000     -10.511196      -286.0242 
  11   2.0000     -10.462861      -284.7089 
  12   2.0000     -10.457657      -284.5673 
  13   2.0000      -1.375694       -37.4345 
  14   2.0000      -1.355352       -36.8810 
  15   2.0000      -1.307216       -35.5712 
  16   2.0000      -1.287859       -35.0444 
  17   2.0000      -1.279445       -34.8155 
  18   2.0000      -1.221634       -33.2423 
  19   2.0000      -1.192967       -32.4623 
  20   2.0000      -1.053659       -28.6715 
  21   2.0000      -1.014579       -27.6081 
  22   2.0000      -0.972683       -26.4681 
  23   2.0000      -0.882197       -24.0058 
  24   2.0000      -0.873542       -23.7703 
  25   2.0000      -0.864658       -23.5285 
  26   2.0000      -0.854575       -23.2542 
  27   2.0000      -0.846379       -23.0311 
  28   2.0000      -0.806118       -21.9356 
  29   2.0000      -0.786977       -21.4147 
  30   2.0000      -0.764639       -20.8069 
  31   2.0000      -0.754859       -20.5408 
  32   2.0000      -0.746165       -20.3042 
  33   2.0000      -0.728907       -19.8346 
  34   2.0000      -0.717761       -19.5313 
  35   2.0000      -0.712027       -19.3752 
  36   2.0000      -0.702962       -19.1286 
  37   2.0000      -0.670545       -18.2465 
  38   2.0000      -0.664895       -18.0927 
  39   2.0000      -0.659996       -17.9594 
  40   2.0000      -0.642491       -17.4831 
  41   2.0000      -0.634407       -17.2631 
  42   2.0000      -0.629762       -17.1367 
  43   2.0000      -0.611613       -16.6428 
  44   2.0000      -0.568121       -15.4594 
  45   2.0000      -0.559808       -15.2331 
  46   2.0000      -0.544581       -14.8188 
  47   2.0000      -0.532294       -14.4845 
  48   2.0000      -0.503492       -13.7007 
  49   2.0000      -0.487714       -13.2714 
  50   0.0000      -0.077817        -2.1175 
  51   0.0000      -0.070180        -1.9097 
  52   0.0000      -0.044328        -1.2062 
  53   0.0000      -0.032055        -0.8723 
  54   0.0000      -0.021197        -0.5768 
  55   0.0000      -0.012682        -0.3451 
  56   0.0000      -0.009951        -0.2708 
  57   0.0000      -0.000000        -0.0000 
  58   0.0000       0.032591         0.8869 
  59   0.0000       0.039734         1.0812 
  60   0.0000       0.044247         1.2040 
  61   0.0000       0.052018         1.4155 
  62   0.0000       0.063459         1.7268 
  63   0.0000       0.069197         1.8830 
  64   0.0000       0.077577         2.1110 
  65   0.0000       0.083263         2.2657 
  66   0.0000       0.096844         2.6353 
  67   0.0000       0.103516         2.8168 
  68   0.0000       0.110832         3.0159 
  69   0.0000       0.117424         3.1953 
  70   0.0000       0.132247         3.5986 
  71   0.0000       0.140438         3.8215 
  72   0.0000       0.145361         3.9555 
  73   0.0000       0.158807         4.3214 
  74   0.0000       0.165658         4.5078 
  75   0.0000       0.173031         4.7084 
  76   0.0000       0.187184         5.0935 
  77   0.0000       0.192470         5.2374 
  78   0.0000       0.204724         5.5708 
  79   0.0000       0.210701         5.7335 
  80   0.0000       0.214448         5.8354 
  81   0.0000       0.228685         6.2228 
  82   0.0000       0.242798         6.6069 
  83   0.0000       0.250718         6.8224 
  84   0.0000       0.266793         7.2598 
  85   0.0000       0.273940         7.4543 
  86   0.0000       0.280411         7.6304 
  87   0.0000       0.287121         7.8130 
  88   0.0000       0.292214         7.9515 
  89   0.0000       0.295709         8.0466 
  90   0.0000       0.302421         8.2293 
  91   0.0000       0.313617         8.5339 
  92   0.0000       0.319188         8.6855 
  93   0.0000       0.323212         8.7950 
  94   0.0000       0.332735         9.0542 
  95   0.0000       0.334883         9.1126 
  96   0.0000       0.342738         9.3264 
  97   0.0000       0.344992         9.3877 
  98   0.0000       0.351214         9.5570 
  99   0.0000       0.356724         9.7070 
 100   0.0000       0.361013         9.8237 
 101   0.0000       0.370351        10.0778 
 102   0.0000       0.376089        10.2339 
 103   0.0000       0.380862        10.3638 
 104   0.0000       0.390039        10.6135 
 105   0.0000       0.399039        10.8584 
 106   0.0000       0.404679        11.0119 
 107   0.0000       0.408050        11.1036 
 108   0.0000       0.422420        11.4946 
 109   0.0000       0.425551        11.5798 
 110   0.0000       0.436868        11.8878 
 111   0.0000       0.443328        12.0636 
 112   0.0000       0.452263        12.3067 
 113   0.0000       0.465455        12.6657 
 114   0.0000       0.473369        12.8810 
 115   0.0000       0.484532        13.1848 
 116   0.0000       0.490848        13.3567 
 117   0.0000       0.503043        13.6885 
 118   0.0000       0.518235        14.1019 
 119   0.0000       0.522013        14.2047 
 120   0.0000       0.528339        14.3768 
 121   0.0000       0.534779        14.5521 
 122   0.0000       0.550065        14.9680 
 123   0.0000       0.561968        15.2919 
 124   0.0000       0.570216        15.5164 
 125   0.0000       0.576276        15.6813 
 126   0.0000       0.589879        16.0514 
 127   0.0000       0.592366        16.1191 
 128   0.0000       0.614741        16.7279 
 129   0.0000       0.631794        17.1920 
 130   0.0000       0.637829        17.3562 
 131   0.0000       0.646200        17.5840 
 132   0.0000       0.658850        17.9282 
 133   0.0000       0.665720        18.1151 
 134   0.0000       0.675899        18.3921 
 135   0.0000       0.698525        19.0078 
 136   0.0000       0.706789        19.2327 
 137   0.0000       0.724855        19.7243 
 138   0.0000       0.736912        20.0524 
 139   0.0000       0.740403        20.1474 
 140   0.0000       0.755698        20.5636 
 141   0.0000       0.763147        20.7663 
 142   0.0000       0.764969        20.8159 
 143   0.0000       0.774888        21.0858 
 144   0.0000       0.784936        21.3592 
 145   0.0000       0.791482        21.5373 
 146   0.0000       0.806250        21.9392 
 147   0.0000       0.822031        22.3686 
 148   0.0000       0.839821        22.8527 
 149   0.0000       0.856530        23.3074 
 150   0.0000       0.862267        23.4635 
 151   0.0000       0.868232        23.6258 
 152   0.0000       0.880019        23.9465 
 153   0.0000       0.882426        24.0120 
 154   0.0000       0.890814        24.2403 
 155   0.0000       0.902674        24.5630 
 156   0.0000       0.910727        24.7821 
 157   0.0000       0.933106        25.3911 
 158   0.0000       0.938878        25.5482 
 159   0.0000       0.946202        25.7475 
 160   0.0000       0.953584        25.9483 
 161   0.0000       0.964544        26.2466 
 162   0.0000       0.970915        26.4199 
 163   0.0000       0.982545        26.7364 
 164   0.0000       0.998316        27.1655 
 165   0.0000       1.000745        27.2317 
 166   0.0000       1.010745        27.5038 
 167   0.0000       1.024877        27.8883 
 168   0.0000       1.031344        28.0643 
 169   0.0000       1.036341        28.2003 
 170   0.0000       1.053159        28.6579 
 171   0.0000       1.062361        28.9083 
 172   0.0000       1.065636        28.9974 
 173   0.0000       1.069743        29.1092 
 174   0.0000       1.076522        29.2936 
 175   0.0000       1.099181        29.9102 
 176   0.0000       1.102093        29.9895 
 177   0.0000       1.114386        30.3240 
 178   0.0000       1.140758        31.0416 
 179   0.0000       1.144972        31.1563 
 180   0.0000       1.160679        31.5837 
 181   0.0000       1.181339        32.1459 
 182   0.0000       1.184715        32.2377 
 183   0.0000       1.187822        32.3223 
 184   0.0000       1.198082        32.6015 
 185   0.0000       1.211339        32.9622 
 186   0.0000       1.229917        33.4677 
 187   0.0000       1.240078        33.7443 
 188   0.0000       1.246166        33.9099 
 189   0.0000       1.259569        34.2746 
 190   0.0000       1.262746        34.3611 
 191   0.0000       1.282713        34.9044 
 192   0.0000       1.293201        35.1898 
 193   0.0000       1.299980        35.3743 
 194   0.0000       1.315672        35.8013 
 195   0.0000       1.336620        36.3713 
 196   0.0000       1.351225        36.7687 
 197   0.0000       1.368068        37.2270 
 198   0.0000       1.370906        37.3043 
 199   0.0000       1.382157        37.6104 
 200   0.0000       1.392582        37.8941 
 201   0.0000       1.408679        38.3321 
 202   0.0000       1.418154        38.5899 
 203   0.0000       1.427377        38.8409 
 204   0.0000       1.440430        39.1961 
 205   0.0000       1.443175        39.2708 
 206   0.0000       1.454883        39.5894 
 207   0.0000       1.461770        39.7768 
 208   0.0000       1.470929        40.0260 
 209   0.0000       1.478990        40.2454 
 210   0.0000       1.481671        40.3183 
 211   0.0000       1.504960        40.9520 
 212   0.0000       1.518215        41.3127 
 213   0.0000       1.524648        41.4878 
 214   0.0000       1.533308        41.7234 
 215   0.0000       1.550210        42.1834 
 216   0.0000       1.556176        42.3457 
 217   0.0000       1.573133        42.8071 
 218   0.0000       1.588125        43.2151 
 219   0.0000       1.589952        43.2648 
 220   0.0000       1.606059        43.7031 
 221   0.0000       1.638400        44.5831 
 222   0.0000       1.657322        45.0980 
 223   0.0000       1.668744        45.4088 
 224   0.0000       1.679383        45.6983 
 225   0.0000       1.695356        46.1330 
 226   0.0000       1.706968        46.4490 
 227   0.0000       1.718929        46.7744 
 228   0.0000       1.725877        46.9635 
 229   0.0000       1.744688        47.4754 
 230   0.0000       1.757854        47.8336 
 231   0.0000       1.783652        48.5356 
 232   0.0000       1.798378        48.9364 
 233   0.0000       1.820647        49.5423 
 234   0.0000       1.843924        50.1757 
 235   0.0000       1.853411        50.4339 
 236   0.0000       1.866615        50.7932 
 237   0.0000       1.883865        51.2626 
 238   0.0000       1.907738        51.9122 
 239   0.0000       1.932482        52.5855 
 240   0.0000       1.945365        52.9361 
 241   0.0000       1.960887        53.3584 
 242   0.0000       1.966650        53.5153 
 243   0.0000       1.983095        53.9627 
 244   0.0000       1.998343        54.3777 
 245   0.0000       2.023412        55.0598 
 246   0.0000       2.025675        55.1214 
 247   0.0000       2.059527        56.0426 
 248   0.0000       2.065851        56.2147 
 249   0.0000       2.083146        56.6853 
 250   0.0000       2.109753        57.4093 
 251   0.0000       2.125046        57.8254 
 252   0.0000       2.160268        58.7839 
 253   0.0000       2.183778        59.4236 
 254   0.0000       2.196131        59.7598 
 255   0.0000       2.205227        60.0073 
 256   0.0000       2.218512        60.3688 
 257   0.0000       2.244539        61.0770 
 258   0.0000       2.274039        61.8797 
 259   0.0000       2.285153        62.1822 
 260   0.0000       2.296982        62.5040 
 261   0.0000       2.313527        62.9543 
 262   0.0000       2.329292        63.3833 
 263   0.0000       2.334421        63.5228 
 264   0.0000       2.359183        64.1966 
 265   0.0000       2.369991        64.4907 
 266   0.0000       2.406644        65.4881 
 267   0.0000       2.432886        66.2022 
 268   0.0000       2.450156        66.6721 
 269   0.0000       2.453406        66.7606 
 270   0.0000       2.484812        67.6152 
 271   0.0000       2.508125        68.2496 
 272   0.0000       2.515896        68.4610 
 273   0.0000       2.535664        68.9989 
 274   0.0000       2.553478        69.4837 
 275   0.0000       2.557110        69.5825 
 276   0.0000       2.575597        70.0855 
 277   0.0000       2.583424        70.2985 
 278   0.0000       2.608943        70.9929 
 279   0.0000       2.612568        71.0916 
 280   0.0000       2.620237        71.3003 
 281   0.0000       2.636202        71.7347 
 282   0.0000       2.670166        72.6589 
 283   0.0000       2.676308        72.8261 
 284   0.0000       2.693247        73.2870 
 285   0.0000       2.698222        73.4224 
 286   0.0000       2.699965        73.4698 
 287   0.0000       2.720997        74.0421 
 288   0.0000       2.745166        74.6998 
 289   0.0000       2.755361        74.9772 
 290   0.0000       2.765725        75.2592 
 291   0.0000       2.777425        75.5776 
 292   0.0000       2.785155        75.7879 
 293   0.0000       2.785984        75.8105 
 294   0.0000       2.797161        76.1146 
 295   0.0000       2.812702        76.5375 
 296   0.0000       2.844732        77.4091 
 297   0.0000       2.854539        77.6760 
 298   0.0000       2.860256        77.8315 
 299   0.0000       2.871522        78.1381 
 300   0.0000       2.881983        78.4228 
 301   0.0000       2.897136        78.8351 
 302   0.0000       2.901425        78.9518 
 303   0.0000       2.904682        79.0404 
 304   0.0000       2.916570        79.3639 
 305   0.0000       2.934660        79.8562 
 306   0.0000       2.944903        80.1349 
 307   0.0000       2.961828        80.5954 
 308   0.0000       2.967808        80.7582 
 309   0.0000       2.971352        80.8546 
 310   0.0000       2.983105        81.1744 
 311   0.0000       2.989930        81.3601 
 312   0.0000       3.003562        81.7311 
 313   0.0000       3.020519        82.1925 
 314   0.0000       3.026241        82.3482 
 315   0.0000       3.039079        82.6975 
 316   0.0000       3.055040        83.1319 
 317   0.0000       3.059271        83.2470 
 318   0.0000       3.066580        83.4459 
 319   0.0000       3.078811        83.7787 
 320   0.0000       3.092176        84.1424 
 321   0.0000       3.096881        84.2704 
 322   0.0000       3.110323        84.6362 
 323   0.0000       3.115468        84.7762 
 324   0.0000       3.133354        85.2629 
 325   0.0000       3.139754        85.4371 
 326   0.0000       3.142532        85.5126 
 327   0.0000       3.156929        85.9044 
 328   0.0000       3.159981        85.9875 
 329   0.0000       3.176346        86.4328 
 330   0.0000       3.186585        86.7114 
 331   0.0000       3.198950        87.0479 
 332   0.0000       3.207388        87.2775 
 333   0.0000       3.214591        87.4735 
 334   0.0000       3.234605        88.0181 
 335   0.0000       3.243330        88.2555 
 336   0.0000       3.247471        88.3682 
 337   0.0000       3.257915        88.6524 
 338   0.0000       3.261975        88.7628 
 339   0.0000       3.275144        89.1212 
 340   0.0000       3.296628        89.7058 
 341   0.0000       3.306304        89.9691 
 342   0.0000       3.308212        90.0210 
 343   0.0000       3.330195        90.6192 
 344   0.0000       3.333262        90.7027 
 345   0.0000       3.345182        91.0270 
 346   0.0000       3.361634        91.4747 
 347   0.0000       3.373738        91.8041 
 348   0.0000       3.388195        92.1975 
 349   0.0000       3.395171        92.3873 
 350   0.0000       3.401343        92.5553 
 351   0.0000       3.414332        92.9087 
 352   0.0000       3.419804        93.0576 
 353   0.0000       3.431161        93.3666 
 354   0.0000       3.432466        93.4022 
 355   0.0000       3.443941        93.7144 
 356   0.0000       3.460268        94.1587 
 357   0.0000       3.475425        94.5711 
 358   0.0000       3.497580        95.1740 
 359   0.0000       3.503739        95.3416 
 360   0.0000       3.511412        95.5504 
 361   0.0000       3.527789        95.9960 
 362   0.0000       3.534632        96.1822 
 363   0.0000       3.547678        96.5372 
 364   0.0000       3.559143        96.8492 
 365   0.0000       3.568947        97.1160 
 366   0.0000       3.577283        97.3428 
 367   0.0000       3.583411        97.5096 
 368   0.0000       3.592843        97.7662 
 369   0.0000       3.599531        97.9482 
 370   0.0000       3.612176        98.2923 
 371   0.0000       3.624234        98.6204 
 372   0.0000       3.645763        99.2062 
 373   0.0000       3.649827        99.3168 
 374   0.0000       3.666821        99.7793 
 375   0.0000       3.694552       100.5339 
 376   0.0000       3.698223       100.6338 
 377   0.0000       3.711209       100.9871 
 378   0.0000       3.729021       101.4718 
 379   0.0000       3.735022       101.6351 
 380   0.0000       3.749424       102.0270 
 381   0.0000       3.760552       102.3298 
 382   0.0000       3.779794       102.8534 
 383   0.0000       3.788356       103.0864 
 384   0.0000       3.790261       103.1382 
 385   0.0000       3.803826       103.5074 
 386   0.0000       3.812706       103.7490 
 387   0.0000       3.821885       103.9988 
 388   0.0000       3.825578       104.0993 
 389   0.0000       3.836203       104.3884 
 390   0.0000       3.854764       104.8934 
 391   0.0000       3.872338       105.3717 
 392   0.0000       3.879085       105.5553 
 393   0.0000       3.896634       106.0328 
 394   0.0000       3.910879       106.4204 
 395   0.0000       3.919444       106.6535 
 396   0.0000       3.943863       107.3180 
 397   0.0000       3.966620       107.9372 
 398   0.0000       3.979377       108.2843 
 399   0.0000       3.990191       108.5786 
 400   0.0000       3.999346       108.8277 
 401   0.0000       4.016508       109.2947 
 402   0.0000       4.021427       109.4286 
 403   0.0000       4.029062       109.6364 
 404   0.0000       4.046076       110.0993 
 405   0.0000       4.052469       110.2733 
 406   0.0000       4.073041       110.8331 
 407   0.0000       4.093214       111.3820 
 408   0.0000       4.116662       112.0201 
 409   0.0000       4.124264       112.2269 
 410   0.0000       4.146320       112.8271 
 411   0.0000       4.151274       112.9619 
 412   0.0000       4.170291       113.4794 
 413   0.0000       4.180733       113.7635 
 414   0.0000       4.183495       113.8387 
 415   0.0000       4.200944       114.3135 
 416   0.0000       4.207012       114.4786 
 417   0.0000       4.226707       115.0146 
 418   0.0000       4.235405       115.2512 
 419   0.0000       4.241822       115.4259 
 420   0.0000       4.254070       115.7591 
 421   0.0000       4.263175       116.0069 
 422   0.0000       4.286431       116.6397 
 423   0.0000       4.300318       117.0176 
 424   0.0000       4.311631       117.3254 
 425   0.0000       4.337165       118.0203 
 426   0.0000       4.358840       118.6101 
 427   0.0000       4.362037       118.6971 
 428   0.0000       4.382659       119.2582 
 429   0.0000       4.400330       119.7391 
 430   0.0000       4.409926       120.0002 
 431   0.0000       4.436514       120.7237 
 432   0.0000       4.465924       121.5240 
 433   0.0000       4.483285       121.9964 
 434   0.0000       4.490159       122.1834 
 435   0.0000       4.505475       122.6002 
 436   0.0000       4.511593       122.7667 
 437   0.0000       4.536994       123.4579 
 438   0.0000       4.551010       123.8393 
 439   0.0000       4.585004       124.7643 
 440   0.0000       4.614289       125.5612 
 441   0.0000       4.638772       126.2274 
 442   0.0000       4.660039       126.8061 
 443   0.0000       4.662849       126.8826 
 444   0.0000       4.677739       127.2877 
 445   0.0000       4.694994       127.7573 
 446   0.0000       4.707669       128.1022 
 447   0.0000       4.725863       128.5973 
 448   0.0000       4.735474       128.8588 
 449   0.0000       4.755942       129.4158 
 450   0.0000       4.763010       129.6081 
 451   0.0000       4.771881       129.8495 
 452   0.0000       4.781318       130.1063 
 453   0.0000       4.818479       131.1175 
 454   0.0000       4.848095       131.9234 
 455   0.0000       4.867049       132.4391 
 456   0.0000       4.879561       132.7796 
 457   0.0000       4.901874       133.3868 
 458   0.0000       4.933734       134.2537 
 459   0.0000       4.942001       134.4787 
 460   0.0000       4.972192       135.3002 
 461   0.0000       4.980851       135.5359 
 462   0.0000       4.985541       135.6635 
 463   0.0000       5.028975       136.8454 
 464   0.0000       5.046514       137.3226 
 465   0.0000       5.061168       137.7214 
 466   0.0000       5.069066       137.9363 
 467   0.0000       5.081928       138.2863 
 468   0.0000       5.103578       138.8754 
 469   0.0000       5.123438       139.4158 
 470   0.0000       5.137397       139.7957 
 471   0.0000       5.156378       140.3122 
 472   0.0000       5.166268       140.5813 
 473   0.0000       5.173772       140.7855 
 474   0.0000       5.188188       141.1778 
 475   0.0000       5.198169       141.4494 
 476   0.0000       5.210321       141.7801 
 477   0.0000       5.222988       142.1247 
 478   0.0000       5.244640       142.7139 
 479   0.0000       5.255369       143.0059 
 480   0.0000       5.275190       143.5452 
 481   0.0000       5.279869       143.6725 
 482   0.0000       5.293420       144.0413 
 483   0.0000       5.300189       144.2255 
 484   0.0000       5.312382       144.5573 
 485   0.0000       5.325009       144.9009 
 486   0.0000       5.348150       145.5305 
 487   0.0000       5.355566       145.7323 
 488   0.0000       5.367222       146.0495 
 489   0.0000       5.394944       146.8039 
 490   0.0000       5.445114       148.1691 
 491   0.0000       5.455357       148.4478 
 492   0.0000       5.473370       148.9380 
 493   0.0000       5.480986       149.1452 
 494   0.0000       5.515654       150.0886 
 495   0.0000       5.532454       150.5457 
 496   0.0000       5.537861       150.6929 
 497   0.0000       5.551101       151.0531 
 498   0.0000       5.559347       151.2775 
 499   0.0000       5.586234       152.0092 
 500   0.0000       5.592494       152.1795 
 501   0.0000       5.605157       152.5241 
 502   0.0000       5.634839       153.3318 
 503   0.0000       5.644572       153.5966 
 504   0.0000       5.670853       154.3118 
 505   0.0000       5.702593       155.1755 
 506   0.0000       5.748391       156.4217 
 507   0.0000       5.755334       156.6106 
 508   0.0000       5.771102       157.0397 
 509   0.0000       5.789901       157.5512 
 510   0.0000       5.813567       158.1952 
 511   0.0000       5.824669       158.4973 
 512   0.0000       5.839719       158.9068 
 513   0.0000       5.870773       159.7518 
 514   0.0000       5.882466       160.0700 
 515   0.0000       5.900832       160.5698 
 516   0.0000       5.912946       160.8995 
 517   0.0000       5.965657       162.3338 
 518   0.0000       5.988006       162.9419 
 519   0.0000       6.070803       165.1950 
 520   0.0000       6.112615       166.3327 
 521   0.0000       6.116939       166.4504 
 522   0.0000       6.176987       168.0844 
 523   0.0000       6.187225       168.3629 
 524   0.0000       6.275393       170.7621 
 525   0.0000       6.301691       171.4777 
 526   0.0000       6.319172       171.9534 
 527   0.0000       6.332121       172.3058 
 528   0.0000       6.338226       172.4719 
 529   0.0000       6.385532       173.7592 
 530   0.0000       6.416009       174.5885 
 531   0.0000       6.432704       175.0428 
 532   0.0000       6.452261       175.5749 
 533   0.0000       6.462894       175.8643 
 534   0.0000       6.518961       177.3899 
 535   0.0000       6.551717       178.2813 
 536   0.0000       6.569683       178.7702 
 537   0.0000       6.577908       178.9940 
 538   0.0000       6.600075       179.5972 
 539   0.0000       6.619988       180.1390 
 540   0.0000       6.709710       182.5805 
 541   0.0000       6.717301       182.7870 
 542   0.0000       6.735704       183.2878 
 543   0.0000       6.772416       184.2868 
 544   0.0000       6.783989       184.6017 
 545   0.0000       6.828387       185.8099 
 546   0.0000       6.836196       186.0223 
 547   0.0000       6.846458       186.3016 
 548   0.0000       6.864603       186.7953 
 549   0.0000       6.998227       190.4314 
 550   0.0000       7.010212       190.7576 
 551   0.0000       7.082273       192.7184 
 552   0.0000       7.131646       194.0620 
 553   0.0000       7.152850       194.6389 
 554   0.0000       7.171455       195.1452 
 555   0.0000       7.222458       196.5331 
 556   0.0000       7.368360       200.5033 
 557   0.0000       7.488067       203.7607 
 558   0.0000      23.123216       629.2147 
 559   0.0000      23.205429       631.4518 
 560   0.0000      23.227110       632.0418 
 561   0.0000      23.277708       633.4186 
 562   0.0000      23.326880       634.7567 
 563   0.0000      23.370666       635.9482 
 564   0.0000      32.676212       889.1649 
 565   0.0000      32.829137       893.3262 
 566   0.0000      32.856390       894.0678 
 567   0.0000      43.860805      1193.5132 
 568   0.0000      43.864233      1193.6065 
 569   0.0000      43.903773      1194.6824 
 570   0.0000      43.985107      1196.8956 

                    ********************************
                    * MULLIKEN POPULATION ANALYSIS *
                    ********************************

-----------------------
MULLIKEN ATOMIC CHARGES
-----------------------
   0 N :   -0.216301
   1 H :    0.185859
   2 C :   -0.141000
   3 C :    0.368833
   4 H :    0.157480
   5 H :    0.150279
   6 O :   -0.388922
   7 C :    0.218460
   8 C :   -0.071145
   9 O :   -0.334898
  10 N :   -0.176447
  11 H :    0.137169
  12 H :    0.144001
  13 H :    0.204959
  14 C :    0.279632
  15 C :   -0.160207
  16 O :   -0.350004
  17 H :    0.172344
  18 H :    0.171349
  19 O :   -0.213207
  20 H :    0.238801
  21 N :   -0.088352
  22 H :    0.237648
  23 H :    0.236024
  24 H :    0.237645
Sum of atomic charges:    1.0000000

--------------------------------
MULLIKEN REDUCED ORBITAL CHARGES
--------------------------------
  0 N s       :     3.407925  s :     3.407925
      pz      :     1.142125  p :     3.749829
      px      :     1.266411
      py      :     1.341294
      dz2     :     0.012365  d :     0.054899
      dxz     :     0.011315
      dyz     :     0.009538
      dx2y2   :     0.011179
      dxy     :     0.010501
      f0      :     0.000416  f :     0.003648
      f+1     :     0.000286
      f-1     :     0.000494
      f+2     :     0.000516
      f-2     :     0.000621
      f+3     :     0.000724
      f-3     :     0.000592
  1 H s       :     0.746974  s :     0.746974
      pz      :     0.022949  p :     0.061837
      px      :     0.019209
      py      :     0.019679
      dz2     :     0.001634  d :     0.005329
      dxz     :     0.001236
      dyz     :     0.001439
      dx2y2   :     0.000546
      dxy     :     0.000474
  2 C s       :     3.186789  s :     3.186789
      pz      :     0.949924  p :     2.837928
      px      :     1.039080
      py      :     0.848924
      dz2     :     0.032362  d :     0.108561
      dxz     :     0.014021
      dyz     :     0.015873
      dx2y2   :     0.022482
      dxy     :     0.023823
      f0      :     0.001062  f :     0.007721
      f+1     :     0.000651
      f-1     :     0.001669
      f+2     :     0.001161
      f-2     :     0.001366
      f+3     :     0.000875
      f-3     :     0.000938
  3 C s       :     3.093169  s :     3.093169
      pz      :     0.686699  p :     2.255423
      px      :     0.772607
      py      :     0.796117
      dz2     :     0.074127  d :     0.258299
      dxz     :     0.039071
      dyz     :     0.066846
      dx2y2   :     0.030196
      dxy     :     0.048059
      f0      :     0.004730  f :     0.024275
      f+1     :     0.002550
      f-1     :     0.003972
      f+2     :     0.003223
      f-2     :     0.005775
      f+3     :     0.001870
      f-3     :     0.002156
  4 H s       :     0.807577  s :     0.807577
      pz      :     0.007452  p :     0.032971
      px      :     0.016377
      py      :     0.009142
      dz2     :     0.000076  d :     0.001972
      dxz     :     0.000654
      dyz     :     0.000157
      dx2y2   :     0.000408
      dxy     :     0.000678
  5 H s       :     0.812878  s :     0.812878
      pz      :     0.014190  p :     0.034729
      px      :     0.009947
      py      :     0.010592
      dz2     :     0.000646  d :     0.002115
      dxz     :     0.000561
      dyz     :     0.000583
      dx2y2   :     0.000164
      dxy     :     0.000160
  6 O s       :     3.815155  s :     3.815155
      pz      :     1.381825  p :     4.542729
      px      :     1.455684
      py      :     1.705221
      dz2     :     0.008716  d :     0.029102
      dxz     :     0.007862
      dyz     :     0.005950
      dx2y2   :     0.003837
      dxy     :     0.002737
      f0      :     0.000453  f :     0.001936
      f+1     :     0.000454
      f-1     :     0.000236
      f+2     :     0.000329
      f-2     :     0.000310
      f+3     :     0.000083
      f-3     :     0.000071
[...]
     53       0.532020  -0.000389   0.458522   0.000826  -0.006688   0.002319
     54       0.069073  -0.000152  -0.078381  -0.000231   0.004012   0.000233
     55       0.266396  -0.000640  -0.315733  -0.000905  -0.000635   0.000323
     56      -0.600455   0.001422   0.672897   0.001880   0.002194   0.000493
     57       0.000016  -0.000031   0.000008   0.000004  -0.000032   0.000003
     58       0.000016  -0.000073   0.000031  -0.000007   0.000067   0.000240
     59       0.000016   0.000230   0.000031  -0.000007   0.000037   0.000239
     60       0.000125   0.001249   0.000183  -0.000039   0.000489   0.002527
     61      -0.000010   0.003401  -0.000050  -0.000036  -0.000245  -0.000271
     62       0.000172   0.000120   0.000226  -0.000008   0.000528   0.003681
     63       0.000711  -0.000001   0.000356  -0.000014  -0.044657   0.001322
     64      -0.000640  -0.000000   0.000435   0.000033   0.037308  -0.001504
     65       0.000071  -0.000000   0.002470   0.000017   0.011809   0.000266
     66       0.009902  -0.000012   0.000579   0.000298  -0.015580  -0.001387
     67       0.029163  -0.000040  -0.002215  -0.000610  -0.030102   0.008619
     68      -0.002537  -0.000003  -0.000679  -0.000100   0.004403  -0.000155
     69       0.002982  -0.000004  -0.001140  -0.000101   0.387071  -0.012788
     70      -0.001973   0.000008   0.005693   0.000130  -0.207474   0.007054
     71       0.005703  -0.000014  -0.009082  -0.000200   0.492469  -0.016410
     72       0.000059  -0.000025  -0.001725   0.000010   0.222939  -0.004314
     73      -0.002337   0.000015  -0.007203   0.000100  -0.279466   0.005635
     74      -0.005764   0.000025  -0.011224   0.000091  -0.656780   0.013247
                 72         73         74    
      0      -0.000019  -0.039064   0.000080
      1      -0.000009  -0.006603  -0.000136
      2       0.000040   0.061976  -0.000009
      3       0.000358   0.514256  -0.000305
      4       0.000108   0.101263  -0.000187
      5      -0.000613  -0.848357   0.000441
      6      -0.000002  -0.000281  -0.000204
      7       0.000001  -0.001647  -0.000008
      8       0.000009  -0.000401  -0.000398
      9      -0.000032   0.000082   0.001901
     10       0.000018  -0.000114  -0.001369
     11      -0.000005   0.000067   0.001756
     12       0.000002   0.005541   0.000458
     13      -0.000016   0.004372   0.000585
     14      -0.000010   0.000199  -0.001010
     15      -0.000006   0.001219  -0.001408
     16       0.000003   0.000485  -0.001039
     17      -0.000048  -0.009069  -0.000195
     18       0.000019  -0.000004  -0.000703
     19      -0.000008  -0.000049   0.000012
     20      -0.000001  -0.000077  -0.001194
     21      -0.000020   0.001054   0.000104
     22       0.000003   0.000357   0.000098
     23       0.000040   0.001388  -0.000018
     24      -0.000012  -0.000281  -0.000022
     25      -0.000000   0.000078   0.000023
     26       0.000004  -0.000011  -0.000000
     27       0.000018   0.000746  -0.000026
     28      -0.000009   0.000138  -0.000046
     29      -0.000024  -0.000745   0.000034
     30      -0.000227   0.000110  -0.000173
     31      -0.000443   0.000201  -0.000248
     32      -0.000063   0.000020  -0.000037
     33       0.000078   0.003123   0.000038
     34      -0.000033   0.000197   0.000027
     35      -0.000056  -0.001952   0.000001
     36       0.000044   0.000574  -0.000013
     37       0.000126  -0.000123   0.000038
     38      -0.000002   0.000147  -0.000028
     39       0.002980  -0.001700   0.001826
     40       0.005920  -0.002029   0.003585
     41       0.000559  -0.001127   0.000799
     42       0.000100  -0.000076   0.000097
     43      -0.000014   0.000011   0.000041
     44      -0.000078  -0.000004  -0.000004
     45      -0.000003  -0.000003   0.000009
     46      -0.000030  -0.000006  -0.000002
     47      -0.001000  -0.000002  -0.000012
     48       0.000039   0.000033  -0.000035
     49      -0.000029   0.000002  -0.000030
     50       0.000006   0.000006   0.000004
     51       0.004384  -0.000053   0.000368
     52       0.006128   0.000033   0.000087
     53       0.007371  -0.000059   0.000245
     54      -0.001913   0.000072  -0.000028
     55      -0.005231   0.000032  -0.000042
     56       0.011541  -0.000051   0.000055
     57       0.000002   0.000027   0.035265
     58       0.000000  -0.000086  -0.012596
     59      -0.000018  -0.000009   0.049956
     60       0.000078  -0.000288  -0.569733
     61      -0.000076   0.000351   0.217782
     62       0.000227  -0.000406  -0.789965
     63      -0.017415   0.000052  -0.000043
     64      -0.000304  -0.000055   0.000023
     65      -0.080115   0.000048  -0.000012
     66      -0.002862  -0.000140   0.000117
     67      -0.003890   0.000428  -0.000115
     68      -0.009704  -0.000045  -0.000001
     69       0.446708  -0.000593   0.000336
     70      -0.247272   0.000320  -0.000174
     71       0.547468  -0.000754   0.000404
     72      -0.206038  -0.000081   0.000182
     73       0.255731   0.000057  -0.000097
     74       0.569716   0.000088  -0.000271


-----------
IR SPECTRUM
-----------

 Mode   freq       eps      Int      T**2         TX        TY        TZ
       cm**-1   L/(mol*cm) km/mol    a.u.
----------------------------------------------------------------------------
  6:     19.46   0.001156    5.84  0.018534  ( 0.118250  0.027948  0.061400)
  7:     41.51   0.002700   13.65  0.020302  (-0.012860 -0.064636  0.126330)
  8:     60.21   0.001926    9.73  0.009983  ( 0.043701  0.081653  0.037492)
  9:     80.24   0.005258   26.57  0.020447  (-0.012013 -0.017343 -0.141428)
 10:     83.78   0.000283    1.43  0.001055  (-0.022766  0.020756  0.010273)
 11:     98.58   0.002748   13.89  0.008699  ( 0.087186 -0.031782 -0.009340)
 12:    139.30   0.002158   10.91  0.004834  ( 0.026286  0.063184  0.012293)
 13:    191.53   0.001763    8.91  0.002873  ( 0.012262 -0.050533 -0.012986)
 14:    257.58   0.002085   10.53  0.002526  ( 0.047263 -0.015670  0.006798)
 15:    288.15   0.002506   12.66  0.002713  (-0.015463 -0.049298  0.006633)
 16:    299.72   0.001234    6.23  0.001284  ( 0.014049 -0.028806  0.016038)
 17:    347.16   0.004723   23.87  0.004245  ( 0.003251  0.057853  0.029792)
 18:    356.00   0.015771   79.70  0.013824  (-0.101265  0.056802 -0.018531)
 19:    413.34   0.018835   95.19  0.014220  ( 0.104174 -0.056801 -0.011906)
 20:    471.69   0.002594   13.11  0.001716  ( 0.041281 -0.003430  0.000055)
 21:    482.94   0.010177   51.43  0.006576  (-0.049031 -0.063698  0.010717)
 22:    498.80   0.008900   44.98  0.005568  (-0.065567 -0.005951  0.035123)
 23:    531.02   0.018137   91.66  0.010658  ( 0.091676 -0.047404  0.002616)
 24:    580.55   0.002224   11.24  0.001195  ( 0.015230  0.029087 -0.010838)
 25:    585.58   0.002249   11.36  0.001198  (-0.018218 -0.016906  0.024094)
 26:    654.25   0.007869   39.77  0.003753  ( 0.054994 -0.017476  0.020577)
 27:    665.27   0.014376   72.65  0.006743  ( 0.010019  0.008947 -0.081013)
 28:    712.03   0.001713    8.66  0.000751  ( 0.004619 -0.002131  0.026924)
 29:    754.26   0.010453   52.82  0.004325  (-0.004879  0.000815  0.065576)
 30:    806.38   0.002604   13.16  0.001008  (-0.014755  0.014701 -0.023959)
 31:    874.78   0.001842    9.31  0.000657  (-0.022573  0.005250  0.010956)
 32:    886.32   0.001895    9.58  0.000667  (-0.016139  0.014962  0.013527)
 33:    920.32   0.005036   25.45  0.001708  ( 0.024551 -0.023254 -0.023756)
 34:    931.18   0.002311   11.68  0.000774  ( 0.002325 -0.005177 -0.027245)
 35:   1004.37   0.000479    2.42  0.000149  (-0.009254  0.007616 -0.002245)
 36:   1026.60   0.000704    3.56  0.000214  (-0.007628 -0.009613 -0.007959)
 37:   1060.12   0.002127   10.75  0.000626  ( 0.024818  0.002162 -0.002368)
 38:   1081.29   0.002879   14.55  0.000831  ( 0.019360 -0.021257 -0.002049)
 39:   1113.09   0.008373   42.31  0.002347  ( 0.032694 -0.034197  0.010447)
 40:   1119.22   0.013456   68.00  0.003752  (-0.041391  0.044686 -0.006459)
 41:   1154.24   0.001375    6.95  0.000372  ( 0.009854 -0.013673 -0.009363)
 42:   1209.38   0.001337    6.76  0.000345  ( 0.002869  0.006156  0.017286)
 43:   1235.42   0.018739   94.70  0.004733  (-0.058268 -0.024445 -0.027213)
 44:   1291.68   0.006208   31.37  0.001500  ( 0.005949  0.027932  0.026157)
 45:   1304.61   0.013465   68.05  0.003221  ( 0.033892  0.029902  0.034323)
 46:   1314.59   0.039024  197.21  0.009264  ( 0.001547  0.076132  0.058867)
 47:   1324.50   0.002933   14.82  0.000691  (-0.011032  0.023601 -0.003511)
 48:   1333.38   0.026620  134.53  0.006230  ( 0.007090 -0.048958 -0.061506)
 49:   1373.53   0.000512    2.59  0.000116  (-0.010279  0.001817 -0.002703)
 50:   1397.42   0.036237  183.13  0.008092  (-0.085437  0.028051 -0.002443)
 51:   1425.84   0.022979  116.13  0.005029  (-0.004413  0.061064  0.035791)
 52:   1442.37   0.060878  307.65  0.013171  (-0.112442 -0.022274  0.005640)
 53:   1466.10   0.003942   19.92  0.000839  ( 0.006296 -0.002021  0.028200)
 54:   1501.25   0.005728   28.95  0.001191  (-0.016965 -0.025107 -0.016507)
 55:   1506.51   0.008507   42.99  0.001762  (-0.038168  0.017453  0.000905)
 56:   1554.12   0.037894  191.50  0.007609  ( 0.070072  0.047298  0.021491)
 57:   1634.74   0.025015  126.42  0.004775  (-0.062779  0.021447 -0.019340)
 58:   1649.12   0.008460   42.75  0.001601  (-0.025004  0.028792  0.012112)
 59:   1669.58   0.006112   30.89  0.001142  ( 0.013440 -0.007817  0.030012)
 60:   1792.65   0.038365  193.88  0.006679  (-0.060789 -0.022075 -0.049960)
 61:   1817.27   0.067810  342.69  0.011644  ( 0.079340  0.041506 -0.060223)
 62:   1842.87   0.054397  274.90  0.009211  ( 0.064989  0.009070  0.070039)
 63:   2903.08   0.075966  383.90  0.008166  (-0.043978  0.078846 -0.003889)
 64:   3101.59   0.001896    9.58  0.000191  ( 0.004523  0.011540  0.006097)
 65:   3119.11   0.002381   12.03  0.000238  (-0.014088  0.005165  0.003615)
 66:   3127.75   0.000896    4.53  0.000089  ( 0.000545  0.009048  0.002687)
 67:   3153.66   0.000058    0.29  0.000006  (-0.001839 -0.001401 -0.000625)
 68:   3191.17   0.001011    5.11  0.000099  ( 0.005441  0.001764  0.008135)
 69:   3204.62   0.000184    0.93  0.000018  ( 0.001626  0.003658  0.001365)
 70:   3516.52   0.022048  111.42  0.001957  ( 0.037935 -0.022387 -0.004045)
 71:   3557.67   0.031781  160.61  0.002788  ( 0.034326  0.036115  0.017470)
 72:   3578.64   0.020571  103.96  0.001794  ( 0.010401  0.000189  0.041057)
 73:   3674.69   0.009093   45.95  0.000772  ( 0.020620  0.003531 -0.018290)
 74:   3840.43   0.022177  112.07  0.001802  (-0.018417 -0.006485 -0.037694)

* The epsilon (eps) is given for a Dirac delta lineshape.
** The dipole moment derivative (T) already includes vibrational overlap.

The first frequency considered to be a vibration is 6
The total number of vibrations considered is 69


--------------------------
THERMOCHEMISTRY AT 298.15K
--------------------------

Temperature         ... 298.15 K
Pressure            ... 1.00 atm
Total Mass          ... 190.18 AMU

Throughout the following assumptions are being made:
  (1) The electronic state is orbitally nondegenerate
  (2) There are no thermally accessible electronically excited states
  (3) Hindered rotations indicated by low frequency modes are not
      treated as such but are treated as vibrations and this may
      cause some error
  (4) All equations used are the standard statistical mechanics
      equations for an ideal gas
  (5) All vibrations are strictly harmonic

freq.      19.46  E(vib)   ...       0.57 
freq.      41.51  E(vib)   ...       0.54 
freq.      60.21  E(vib)   ...       0.51 
freq.      80.24  E(vib)   ...       0.49 
freq.      83.78  E(vib)   ...       0.48 
freq.      98.58  E(vib)   ...       0.46 
freq.     139.30  E(vib)   ...       0.42 
freq.     191.53  E(vib)   ...       0.36 
freq.     257.58  E(vib)   ...       0.30 
freq.     288.15  E(vib)   ...       0.27 
freq.     299.72  E(vib)   ...       0.26 
freq.     347.16  E(vib)   ...       0.23 
freq.     356.00  E(vib)   ...       0.22 
freq.     413.34  E(vib)   ...       0.19 
freq.     471.69  E(vib)   ...       0.15 
freq.     482.94  E(vib)   ...       0.15 
freq.     498.80  E(vib)   ...       0.14 
freq.     531.02  E(vib)   ...       0.13 
freq.     580.55  E(vib)   ...       0.11 
freq.     585.58  E(vib)   ...       0.11 
freq.     654.25  E(vib)   ...       0.08 
freq.     665.27  E(vib)   ...       0.08 
freq.     712.03  E(vib)   ...       0.07 
freq.     754.26  E(vib)   ...       0.06 
freq.     806.38  E(vib)   ...       0.05 
freq.     874.78  E(vib)   ...       0.04 
freq.     886.32  E(vib)   ...       0.04 
freq.     920.32  E(vib)   ...       0.03 
freq.     931.18  E(vib)   ...       0.03 
freq.    1004.37  E(vib)   ...       0.02 
freq.    1026.60  E(vib)   ...       0.02 
freq.    1060.12  E(vib)   ...       0.02 
freq.    1081.29  E(vib)   ...       0.02 
freq.    1113.09  E(vib)   ...       0.01 
freq.    1119.22  E(vib)   ...       0.01 
freq.    1154.24  E(vib)   ...       0.01 
freq.    1209.38  E(vib)   ...       0.01 
freq.    1235.42  E(vib)   ...       0.01 
freq.    1291.68  E(vib)   ...       0.01 
freq.    1304.61  E(vib)   ...       0.01 
freq.    1314.59  E(vib)   ...       0.01 
freq.    1324.50  E(vib)   ...       0.01 
freq.    1333.38  E(vib)   ...       0.01 
freq.    1373.53  E(vib)   ...       0.01 
freq.    1397.42  E(vib)   ...       0.00 
freq.    1425.84  E(vib)   ...       0.00 
freq.    1442.37  E(vib)   ...       0.00 
freq.    1466.10  E(vib)   ...       0.00 
freq.    1501.25  E(vib)   ...       0.00 
freq.    1506.51  E(vib)   ...       0.00 
freq.    1554.12  E(vib)   ...       0.00 
freq.    1634.74  E(vib)   ...       0.00 
freq.    1649.12  E(vib)   ...       0.00 
freq.    1669.58  E(vib)   ...       0.00 
freq.    1792.65  E(vib)   ...       0.00 
freq.    1817.27  E(vib)   ...       0.00 
freq.    1842.87  E(vib)   ...       0.00 
freq.    2903.08  E(vib)   ...       0.00 
freq.    3101.59  E(vib)   ...       0.00 
freq.    3119.11  E(vib)   ...       0.00 
freq.    3127.75  E(vib)   ...       0.00 
freq.    3153.66  E(vib)   ...       0.00 
freq.    3191.17  E(vib)   ...       0.00 
freq.    3204.62  E(vib)   ...       0.00 
freq.    3516.52  E(vib)   ...       0.00 
freq.    3557.67  E(vib)   ...       0.00 
freq.    3578.64  E(vib)   ...       0.00 
freq.    3674.69  E(vib)   ...       0.00 
freq.    3840.43  E(vib)   ...       0.00 

------------
INNER ENERGY
------------

The inner energy is: U= E(el) + E(ZPE) + E(vib) + E(rot) + E(trans)
    E(el)   - is the total energy from the electronic structure calculation
              = E(kin-el) + E(nuc-el) + E(el-el) + E(nuc-nuc)
    E(ZPE)  - the the zero temperature vibrational energy from the frequency calculation
    E(vib)  - the the finite temperature correction to E(ZPE) due to population
              of excited vibrational states
    E(rot)  - is the rotational thermal energy
    E(trans)- is the translational thermal energy

Summary of contributions to the inner energy U:
Electronic energy                ...   -701.33725740 Eh
Zero point energy                ...      0.20878657 Eh     131.02 kcal/mol
Thermal vibrational correction   ...      0.01076389 Eh       6.75 kcal/mol
Thermal rotational correction    ...      0.00141627 Eh       0.89 kcal/mol
Thermal translational correction ...      0.00141627 Eh       0.89 kcal/mol
-----------------------------------------------------------------------
Total thermal energy                   -701.11487439 Eh


Summary of corrections to the electronic energy:
(perhaps to be used in another calculation)
Total thermal correction                  0.01359643 Eh       8.53 kcal/mol
Non-thermal (ZPE) correction              0.20878657 Eh     131.02 kcal/mol
-----------------------------------------------------------------------
Total correction                          0.22238301 Eh     139.55 kcal/mol


--------
ENTHALPY
--------

The enthalpy is H = U + kB*T
                kB is Boltzmann's constant
Total free energy                 ...   -701.11487439 Eh 
Thermal Enthalpy correction       ...      0.00094421 Eh       0.59 kcal/mol
-----------------------------------------------------------------------
Total Enthalpy                    ...   -701.11393018 Eh


Note: Only C1 symmetry has been detected, increase convergence thresholds 
      if your molecule has a higher symmetry. Symmetry factor of 1.0 is   
      used for the rotational entropy correction. 
 

Note: Rotational entropy computed according to Herzberg 
Infrared and Raman Spectra, Chapter V,1, Van Nostrand Reinhold, 1945 
Point Group:  C1, Symmetry Number:   1  
Rotational constants in cm-1:     0.039548     0.017363     0.013774 

Vibrational entropy computed according to the QRRHO of S. Grimme
Chem.Eur.J. 2012 18 9955


-------
ENTROPY
-------

The entropy contributions are T*S = T*(S(el)+S(vib)+S(rot)+S(trans))
     S(el)   - electronic entropy
     S(vib)  - vibrational entropy
     S(rot)  - rotational entropy
     S(trans)- translational entropy
The entropies will be listed as multiplied by the temperature to get
units of energy

Electronic entropy                ...      0.00000000 Eh      0.00 kcal/mol
Vibrational entropy               ...      0.01938459 Eh     12.16 kcal/mol
Rotational entropy                ...      0.01497227 Eh      9.40 kcal/mol
Translational entropy             ...      0.01978162 Eh     12.41 kcal/mol
-----------------------------------------------------------------------
Final entropy term                ...      0.05413848 Eh     33.97 kcal/mol

In case the symmetry of your molecule has not been determined correctly
or in case you have a reason to use a different symmetry number we print 
out the resulting rotational entropy values for sn=1,12 :
 --------------------------------------------------------
|  sn= 1 | S(rot)=       0.01497227 Eh      9.40 kcal/mol|
|  sn= 2 | S(rot)=       0.01431782 Eh      8.98 kcal/mol|
|  sn= 3 | S(rot)=       0.01393498 Eh      8.74 kcal/mol|
|  sn= 4 | S(rot)=       0.01366336 Eh      8.57 kcal/mol|
|  sn= 5 | S(rot)=       0.01345267 Eh      8.44 kcal/mol|
|  sn= 6 | S(rot)=       0.01328053 Eh      8.33 kcal/mol|
|  sn= 7 | S(rot)=       0.01313498 Eh      8.24 kcal/mol|
|  sn= 8 | S(rot)=       0.01300890 Eh      8.16 kcal/mol|
|  sn= 9 | S(rot)=       0.01289769 Eh      8.09 kcal/mol|
|  sn=10 | S(rot)=       0.01279821 Eh      8.03 kcal/mol|
|  sn=11 | S(rot)=       0.01270822 Eh      7.97 kcal/mol|
|  sn=12 | S(rot)=       0.01262607 Eh      7.92 kcal/mol|
 --------------------------------------------------------


-------------------
GIBBS FREE ENERGY
-------------------

The Gibbs free energy is G = H - T*S

Total enthalpy                    ...   -701.11393018 Eh 
Total entropy correction          ...     -0.05413848 Eh    -33.97 kcal/mol
-----------------------------------------------------------------------
Final Gibbs free energy         ...   -701.16806866 Eh

For completeness - the Gibbs free energy minus the electronic energy
G-E(el)                           ...      0.16918874 Eh    106.17 kcal/mol


Timings for individual modules:

Sum of individual times         ...     9091.482 sec (= 151.525 min)
GTO integral calculation        ...       32.148 sec (=   0.536 min)   0.4 %
SCF iterations                  ...     3195.541 sec (=  53.259 min)  35.1 %
SCF Gradient evaluation         ...      667.936 sec (=  11.132 min)   7.3 %
Geometry relaxation             ...        1.177 sec (=   0.020 min)   0.0 %
Analytical frequency calculation...     4700.712 sec (=  78.345 min)  51.7 %
CHELPG charge generation        ...      493.968 sec (=   8.233 min)   5.4 %
                             ****ORCA TERMINATED NORMALLY****
TOTAL RUN TIME: 0 days 2 hours 32 minutes 3 seconds 337 msec
