
Lmod is automatically replacing "intel/2020.1.217" with "gcc/10.3.0".


Due to MODULEPATH changes, the following have been reloaded:
  1) blis/0.8.1     2) flexiblas/3.0.4

The following have been reloaded with a version change:
  1) gcccore/.9.3.0 => gcccore/.10.3.0        3) openmpi/4.0.3 => openmpi/4.1.1
  2) libfabric/1.10.1 => libfabric/1.12.1     4) ucx/1.8.0 => ucx/1.9.0

To execute ORCA, run: 
   ${EBROOTORCA}/orca orca.inp > orca.out

                                 *****************
                                 * O   R   C   A *
                                 *****************

                                            #,                                       
                                            ###                                      
                                            ####                                     
                                            #####                                    
                                            ######                                   
                                           ########,                                 
                                     ,,################,,,,,                         
                               ,,#################################,,                 
                          ,,##########################################,,             
                       ,#########################################, ''#####,          
                    ,#############################################,,   '####,        
                  ,##################################################,,,,####,       
                ,###########''''           ''''###############################       
              ,#####''   ,,,,##########,,,,          '''####'''          '####       
            ,##' ,,,,###########################,,,                        '##       
           ' ,,###''''                  '''############,,,                           
         ,,##''                                '''############,,,,        ,,,,,,###''
      ,#''                                            '''#######################'''  
     '                                                          ''''####''''         
             ,#######,   #######,   ,#######,      ##                                
            ,#'     '#,  ##    ##  ,#'     '#,    #''#        ######   ,####,        
            ##       ##  ##   ,#'  ##            #'  '#       #        #'  '#        
            ##       ##  #######   ##           ,######,      #####,   #    #        
            '#,     ,#'  ##    ##  '#,     ,#' ,#      #,         ##   #,  ,#        
             '#######'   ##     ##  '#######'  #'      '#     #####' # '####'        



                  #######################################################
                  #                        -***-                        #
                  #          Department of theory and spectroscopy      #
                  #    Directorship and core code : Frank Neese         #
                  #        Max Planck Institute fuer Kohlenforschung    #
                  #                Kaiser Wilhelm Platz 1               #
                  #                 D-45470 Muelheim/Ruhr               #
                  #                      Germany                        #
                  #                                                     #
                  #                  All rights reserved                #
                  #                        -***-                        #
                  #######################################################


                         Program Version 5.0.2 -  RELEASE  -


 With contributions from (in alphabetic order):
   Daniel Aravena         : Magnetic Suceptibility
   Michael Atanasov       : Ab Initio Ligand Field Theory (pilot matlab implementation)
   Alexander A. Auer      : GIAO ZORA, VPT2 properties, NMR spectrum
   Ute Becker             : Parallelization
   Giovanni Bistoni       : ED, misc. LED, open-shell LED, HFLD
   Martin Brehm           : Molecular dynamics
   Dmytro Bykov           : SCF Hessian
   Vijay G. Chilkuri      : MRCI spin determinant printing, contributions to CSF-ICE
   Dipayan Datta          : RHF DLPNO-CCSD density
   Achintya Kumar Dutta   : EOM-CC, STEOM-CC
   Dmitry Ganyushin       : Spin-Orbit,Spin-Spin,Magnetic field MRCI
   Miquel Garcia          : C-PCM and meta-GGA Hessian, CC/C-PCM, Gaussian charge scheme
   Yang Guo               : DLPNO-NEVPT2, F12-NEVPT2, CIM, IAO-localization
   Andreas Hansen         : Spin unrestricted coupled pair/coupled cluster methods
   Benjamin Helmich-Paris : MC-RPA, TRAH-SCF, COSX integrals
   Lee Huntington         : MR-EOM, pCC
   Robert Izsak           : Overlap fitted RIJCOSX, COSX-SCS-MP3, EOM
   Marcus Kettner         : VPT2
   Christian Kollmar      : KDIIS, OOCD, Brueckner-CCSD(T), CCSD density, CASPT2, CASPT2-K
   Simone Kossmann        : Meta GGA functionals, TD-DFT gradient, OOMP2, MP2 Hessian
   Martin Krupicka        : Initial AUTO-CI
   Lucas Lang             : DCDCAS
   Marvin Lechner         : AUTO-CI (C++ implementation), FIC-MRCC
   Dagmar Lenk            : GEPOL surface, SMD
   Dimitrios Liakos       : Extrapolation schemes; Compound Job, initial MDCI parallelization
   Dimitrios Manganas     : Further ROCIS development; embedding schemes
   Dimitrios Pantazis     : SARC Basis sets
   Anastasios Papadopoulos: AUTO-CI, single reference methods and gradients
   Taras Petrenko         : DFT Hessian,TD-DFT gradient, ASA, ECA, R-Raman, ABS, FL, XAS/XES, NRVS
   Peter Pinski           : DLPNO-MP2, DLPNO-MP2 Gradient
   Christoph Reimann      : Effective Core Potentials
   Marius Retegan         : Local ZFS, SOC
   Christoph Riplinger    : Optimizer, TS searches, QM/MM, DLPNO-CCSD(T), (RO)-DLPNO pert. Triples
   Tobias Risthaus        : Range-separated hybrids, TD-DFT gradient, RPA, STAB
   Michael Roemelt        : Original ROCIS implementation
   Masaaki Saitow         : Open-shell DLPNO-CCSD energy and density
   Barbara Sandhoefer     : DKH picture change effects
   Avijit Sen             : IP-ROCIS
   Kantharuban Sivalingam : CASSCF convergence, NEVPT2, FIC-MRCI
   Bernardo de Souza      : ESD, SOC TD-DFT
   Georgi Stoychev        : AutoAux, RI-MP2 NMR, DLPNO-MP2 response
   Willem Van den Heuvel  : Paramagnetic NMR
   Boris Wezisla          : Elementary symmetry handling
   Frank Wennmohs         : Technical directorship


 We gratefully acknowledge several colleagues who have allowed us to
 interface, adapt or use parts of their codes:
   Stefan Grimme, W. Hujo, H. Kruse, P. Pracht,  : VdW corrections, initial TS optimization,
                  C. Bannwarth, S. Ehlert          DFT functionals, gCP, sTDA/sTD-DF
   Ed Valeev, F. Pavosevic, A. Kumar             : LibInt (2-el integral package), F12 methods
   Garnet Chan, S. Sharma, J. Yang, R. Olivares  : DMRG
   Ulf Ekstrom                                   : XCFun DFT Library
   Mihaly Kallay                                 : mrcc  (arbitrary order and MRCC methods)
   Jiri Pittner, Ondrej Demel                    : Mk-CCSD
   Frank Weinhold                                : gennbo (NPA and NBO analysis)
   Christopher J. Cramer and Donald G. Truhlar   : smd solvation model
   Lars Goerigk                                  : TD-DFT with DH, B97 family of functionals
   V. Asgeirsson, H. Jonsson                     : NEB implementation
   FAccTs GmbH                                   : IRC, NEB, NEB-TS, DLPNO-Multilevel, CI-OPT
                                                   MM, QMMM, 2- and 3-layer-ONIOM, Crystal-QMMM,
                                                   LR-CPCM, SF, NACMEs, symmetry and pop. for TD-DFT,
                                                   nearIR, NL-DFT gradient (VV10), updates on ESD,
                                                   ML-optimized integration grids
   S Lehtola, MJT Oliveira, MAL Marques          : LibXC Library
   Liviu Ungur et al                             : ANISO software


 Your calculation uses the libint2 library for the computation of 2-el integrals
 For citations please refer to: http://libint.valeyev.net

 Your ORCA version has been built with support for libXC version: 5.1.0
 For citations please refer to: https://tddft.org/programs/libxc/

 This ORCA versions uses:
   CBLAS   interface :  Fast vector & matrix operations
   LAPACKE interface :  Fast linear algebra routines
   SCALAPACK package :  Parallel linear algebra routines
   Shared memory     :  Shared parallel matrices
   BLAS/LAPACK       :  OpenBLAS 0.3.15  USE64BITINT DYNAMIC_ARCH NO_AFFINITY Zen SINGLE_THREADED
        Core in use  :  Zen
   Copyright (c) 2011-2014, The OpenBLAS Project


Your calculation utilizes the atom-pairwise dispersion correction
with the Becke-Johnson damping scheme (D3BJ)
Cite in your paper:
S.Grimme, S.Ehrlich, L.Goerigk, J Comput Chem, (2011), 32, 1456–1465 
S.Grimme, J.Antony, S.Ehrlich and H.Krieg, J.Chem.Phys., 132, (2010), 154104 
   

================================================================================

----- Orbital basis set information -----
Your calculation utilizes the basis: def2-TZVPP
   F. Weigend and R. Ahlrichs, Phys. Chem. Chem. Phys. 7, 3297 (2005).

----- AuxJ basis set information -----
Your calculation utilizes the auxiliary basis: def2/J
   F. Weigend, Phys. Chem. Chem. Phys. 8, 1057 (2006).

================================================================================
                                        WARNINGS
                       Please study these warnings very carefully!
================================================================================


WARNING: Geometry Optimization
  ===> : Switching off AutoStart
         For restart on a previous wavefunction, please use MOREAD

INFO   : the flag for use of the SHARK integral package has been found!

================================================================================
                                       INPUT FILE
================================================================================
NAME = GGG-H_tt_013_OptFreq.inp
|  1> # GGG-H_tt_013 (old 059)
|  2> ! wB97X-D3BJ Opt Freq def2-TZVPP def2/J RIJCOSX VeryTightSCF
|  3> ! PAL8 defgrid3 VeryTightOpt
|  4> 
|  5> %maxcore 4096
|  6> 
|  7> %geom
|  8>   MaxIter 300
|  9>   # MaxStep 0.1
| 10>   Calc_Hess true
| 11>   Recalc_Hess 10
| 12> end
| 13> 
| 14> %chelpg
| 15>   grid 0.1
| 16>   rmax 3.0
| 17> end
| 18> 
| 19> * xyz 1 1 
| 20>  N   -1.121925   +1.907533   +2.904784
| 21>  H   -1.815258   +2.553221   +2.498197
| 22>  C   -1.024465   +2.027483   +4.348348
| 23>  C   -2.049499   +3.097213   +4.761215
| 24>  H   -1.247818   +1.063131   +4.842659
| 25>  H   -0.004828   +2.329508   +4.654791
| 26>  O   -2.740164   +3.655658   +3.937809
| 27>  C   -0.408109   +1.056584   +2.162849
| 28>  C   -0.646598   +1.134160   +0.631904
| 29>  O   +0.410754   +0.256266   +2.669788
| 30>  N   +0.000000   +0.000000   +0.000000
| 31>  H   -0.192661   +2.062262   +0.247102
| 32>  H   -1.722465   +1.148295   +0.396776
| 33>  H   -0.471468   -0.898925   +0.096025
| 34>  C   +1.368104   +0.000000   +0.000000
| 35>  C   +2.042872   -1.347994   +0.299808
| 36>  O   +2.061631   +1.009146   +0.000000
| 37>  H   +2.913868   -1.532155   -0.345287
| 38>  H   +1.371542   -2.219483   +0.303273
| 39>  O   -2.138917   +3.378514   +6.068197
| 40>  H   -1.516094   +2.844895   +6.599597
| 41>  N   +2.509866   -1.104498   +1.718991
| 42>  H   +1.674188   -0.658053   +2.244317
| 43>  H   +2.871242   -1.944232   +2.193911
| 44>  H   +3.246094   -0.378116   +1.699058
| 45> *
| 46> 
| 47>                          ****END OF INPUT****
================================================================================

                       *****************************
                       * Geometry Optimization Run *
                       *****************************

Geometry optimization settings:
Update method            Update   .... BFGS
Choice of coordinates    CoordSys .... Z-matrix Internals
Initial Hessian          InHess   .... Almoef's Model

Convergence Tolerances:
Energy Change            TolE     ....  2.0000e-07 Eh
Max. Gradient            TolMAXG  ....  3.0000e-05 Eh/bohr
RMS Gradient             TolRMSG  ....  8.0000e-06 Eh/bohr
Max. Displacement        TolMAXD  ....  2.0000e-04 bohr
RMS Displacement         TolRMSD  ....  1.0000e-04 bohr
Strict Convergence                ....  False
------------------------------------------------------------------------------
                        ORCA OPTIMIZATION COORDINATE SETUP
------------------------------------------------------------------------------

The optimization will be done in new redundant internal coordinates
Making redundant internal coordinates   ...  (new redundants) done
Evaluating the initial hessian          ...  (Is done on the fly) done
Evaluating the coordinates              ...  done
Calculating the B-matrix                .... done
Calculating the G-matrix                .... done
Diagonalizing the G-matrix              .... done
Small eigenvalue found = 3.815e-03
Small eigenvalue found = 1.704e-02
Small eigenvalue found = 2.252e-02
Small eigenvalue found = 2.535e-02
The first mode is                       ....   44
The number of degrees of freedom        ....   69

    -----------------------------------------------------------------
                    Redundant Internal Coordinates


    -----------------------------------------------------------------
         Definition                    Initial Value    d2E/dq (diagonal element)
    -----------------------------------------------------------------
      1. B(H   1,N   0)                  1.0310         0.000000   
      2. B(C   2,N   0)                  1.4518         0.000000   
      3. B(C   3,C   2)                  1.5380         0.000000   
      4. B(H   4,C   2)                  1.1064         0.000000   
      5. B(H   5,C   2)                  1.1067         0.000000   
      6. B(O   6,C   3)                  1.2111         0.000000   
      7. B(C   7,N   0)                  1.3357         0.000000   
      8. B(C   8,C   7)                  1.5514         0.000000   
      9. B(O   9,C   7)                  1.2522         0.000000   
     10. B(N  10,C   8)                  1.4504         0.000000   
     11. B(H  11,C   8)                  1.1025         0.000000   
     12. B(H  12,C   8)                  1.1014         0.000000   
     13. B(H  13,N  10)                  1.0196         0.000000   
     14. B(C  14,N  10)                  1.3681         0.000000   
     15. B(C  15,C  14)                  1.5370         0.000000   
     16. B(O  16,C  14)                  1.2245         0.000000   
     17. B(H  17,C  15)                  1.0994         0.000000   
     18. B(H  18,C  15)                  1.1001         0.000000   
     19. B(O  19,C   3)                  1.3399         0.000000   
     20. B(H  20,O  19)                  0.9773         0.000000   
     21. B(N  21,C  15)                  1.5138         0.000000   
     22. B(H  22,N  21)                  1.0833         0.000000   
     23. B(H  23,N  21)                  1.0302         0.000000   
     24. B(H  24,N  21)                  1.0344         0.000000   
     25. A(H   1,N   0,C   2)          112.6764         0.000000   
     26. A(C   2,N   0,C   7)          124.6852         0.000000   
     27. A(H   1,N   0,C   7)          122.6374         0.000000   
     28. A(C   3,C   2,H   5)          110.4807         0.000000   
     29. A(C   3,C   2,H   4)          110.5940         0.000000   
     30. A(N   0,C   2,H   4)          111.0178         0.000000   
     31. A(N   0,C   2,C   3)          106.2388         0.000000   
     32. A(N   0,C   2,H   5)          111.0831         0.000000   
     33. A(H   4,C   2,H   5)          107.4660         0.000000   
     34. A(O   6,C   3,O  19)          121.8905         0.000000   
     35. A(C   2,C   3,O  19)          116.8942         0.000000   
     36. A(C   2,C   3,O   6)          121.2153         0.000000   
     37. A(C   8,C   7,O   9)          122.1406         0.000000   
     38. A(N   0,C   7,O   9)          122.1251         0.000000   
     39. A(N   0,C   7,C   8)          115.7308         0.000000   
     40. A(C   7,C   8,H  11)          108.8587         0.000000   
     41. A(C   7,C   8,N  10)          108.8024         0.000000   
     42. A(H  11,C   8,H  12)          108.4749         0.000000   
     43. A(N  10,C   8,H  12)          110.6409         0.000000   
     44. A(C   7,C   8,H  12)          111.1922         0.000000   
     45. A(N  10,C   8,H  11)          108.8232         0.000000   
     46. A(H  13,N  10,C  14)          117.5426         0.000000   
     47. A(C   8,N  10,C  14)          116.4746         0.000000   
     48. A(C   8,N  10,H  13)          116.2467         0.000000   
     49. A(C  15,C  14,O  16)          118.3042         0.000000   
     50. A(N  10,C  14,O  16)          124.4985         0.000000   
     51. A(N  10,C  14,C  15)          116.0416         0.000000   
     52. A(H  17,C  15,H  18)          110.6473         0.000000   
     53. A(C  14,C  15,H  18)          115.3087         0.000000   
     54. A(C  14,C  15,H  17)          112.3504         0.000000   
     55. A(H  18,C  15,N  21)          108.2244         0.000000   
     56. A(H  17,C  15,N  21)          109.4294         0.000000   
     57. A(C  14,C  15,N  21)          100.2090         0.000000   
     58. A(C   3,O  19,H  20)          111.9155         0.000000   
     59. A(H  23,N  21,H  24)          109.3661         0.000000   
     60. A(H  22,N  21,H  24)          105.6035         0.000000   
     61. A(C  15,N  21,H  24)          108.3278         0.000000   
     62. A(H  22,N  21,H  23)          112.5170         0.000000   
     63. A(C  15,N  21,H  23)          114.1609         0.000000   
     64. A(C  15,N  21,H  22)          106.4352         0.000000   
     65. D(H   4,C   2,N   0,C   7)    -58.3013         0.000000   
     66. D(H   5,C   2,N   0,C   7)     61.2186         0.000000   
     67. D(H   5,C   2,N   0,H   1)   -119.1373         0.000000   
     68. D(H   4,C   2,N   0,H   1)    121.3428         0.000000   
     69. D(C   3,C   2,N   0,H   1)      1.0525         0.000000   
     70. D(C   3,C   2,N   0,C   7)   -178.5915         0.000000   
     71. D(O   6,C   3,C   2,H   4)   -120.6560         0.000000   
     72. D(O  19,C   3,C   2,H   5)    -59.4885         0.000000   
     73. D(O  19,C   3,C   2,H   4)     59.3674         0.000000   
     74. D(O   6,C   3,C   2,H   5)    120.4881         0.000000   
     75. D(O  19,C   3,C   2,N   0)    179.9318         0.000000   
     76. D(O   6,C   3,C   2,N   0)     -0.0916         0.000000   
     77. D(O   9,C   7,N   0,H   1)   -178.4247         0.000000   
     78. D(C   8,C   7,N   0,C   2)   -178.1521         0.000000   
     79. D(C   8,C   7,N   0,H   1)      2.2379         0.000000   
     80. D(O   9,C   7,N   0,C   2)      1.1853         0.000000   
     81. D(H  12,C   8,C   7,O   9)    133.2677         0.000000   
     82. D(H  12,C   8,C   7,N   0)    -47.3951         0.000000   
     83. D(H  11,C   8,C   7,O   9)   -107.2874         0.000000   
     84. D(N  10,C   8,C   7,O   9)     11.1676         0.000000   
     85. D(N  10,C   8,C   7,N   0)   -169.4951         0.000000   
     86. D(H  11,C   8,C   7,N   0)     72.0499         0.000000   
     87. D(C  14,N  10,C   8,H  12)    168.1140         0.000000   
     88. D(C  14,N  10,C   8,H  11)     49.0251         0.000000   
     89. D(C  14,N  10,C   8,C   7)    -69.4523         0.000000   
     90. D(H  13,N  10,C   8,H  12)    -46.6478         0.000000   
     91. D(H  13,N  10,C   8,H  11)   -165.7368         0.000000   
     92. D(H  13,N  10,C   8,C   7)     75.7859         0.000000   
     93. D(O  16,C  14,N  10,C   8)    -29.1246         0.000000   
     94. D(C  15,C  14,N  10,H  13)     -6.4418         0.000000   
     95. D(C  15,C  14,N  10,C   8)    138.3363         0.000000   
     96. D(O  16,C  14,N  10,H  13)   -173.9027         0.000000   
     97. D(N  21,C  15,C  14,O  16)     63.1519         0.000000   
     98. D(N  21,C  15,C  14,N  10)   -105.1226         0.000000   
     99. D(H  18,C  15,C  14,O  16)    179.0436         0.000000   
    100. D(H  18,C  15,C  14,N  10)     10.7691         0.000000   
    101. D(H  17,C  15,C  14,O  16)    -52.9199         0.000000   
    102. D(H  17,C  15,C  14,N  10)    138.8056         0.000000   
    103. D(H  20,O  19,C   3,O   6)   -179.9469         0.000000   
    104. D(H  20,O  19,C   3,C   2)      0.0296         0.000000   
    105. D(H  24,N  21,C  15,H  18)    171.7522         0.000000   
    106. D(H  24,N  21,C  15,H  17)     51.1021         0.000000   
    107. D(H  24,N  21,C  15,C  14)    -67.1429         0.000000   
    108. D(H  23,N  21,C  15,H  18)     49.6478         0.000000   
    109. D(H  23,N  21,C  15,H  17)    -71.0023         0.000000   
    110. D(H  23,N  21,C  15,C  14)    170.7527         0.000000   
    111. D(H  22,N  21,C  15,H  18)    -75.0979         0.000000   
    112. D(H  22,N  21,C  15,H  17)    164.2520         0.000000   
    113. D(H  22,N  21,C  15,C  14)     46.0070         0.000000   
    -----------------------------------------------------------------

Number of atoms                         .... 25
Number of degrees of freedom            .... 113

         *************************************************************
         *                GEOMETRY OPTIMIZATION CYCLE   1            *
         *************************************************************
---------------------------------
CARTESIAN COORDINATES (ANGSTROEM)
---------------------------------
  N     -1.121925    1.907533    2.904784
  H     -1.815258    2.553221    2.498197
  C     -1.024465    2.027483    4.348348
  C     -2.049499    3.097213    4.761215
  H     -1.247818    1.063131    4.842659
  H     -0.004828    2.329508    4.654791
  O     -2.740164    3.655658    3.937809
  C     -0.408109    1.056584    2.162849
  C     -0.646598    1.134160    0.631904
  O      0.410754    0.256266    2.669788
  N      0.000000    0.000000    0.000000
  H     -0.192661    2.062262    0.247102
  H     -1.722465    1.148295    0.396776
  H     -0.471468   -0.898925    0.096025
  C      1.368104    0.000000    0.000000
  C      2.042872   -1.347994    0.299808
  O      2.061631    1.009146    0.000000
  H      2.913868   -1.532155   -0.345287
  H      1.371542   -2.219483    0.303273
  O     -2.138917    3.378514    6.068197
  H     -1.516094    2.844895    6.599597
  N      2.509866   -1.104498    1.718991
  H      1.674188   -0.658053    2.244317
  H      2.871242   -1.944232    2.193911
  H      3.246094   -0.378116    1.699058

----------------------------
CARTESIAN COORDINATES (A.U.)
----------------------------
  NO LB      ZA    FRAG     MASS         X           Y           Z
   0 N     7.0000    0    14.007   -2.120131    3.604715    5.489246
   1 H     1.0000    0     1.008   -3.430340    4.824888    4.720908
   2 C     6.0000    0    12.011   -1.935958    3.831388    8.217187
   3 C     6.0000    0    12.011   -3.872992    5.852884    8.997392
   4 H     1.0000    0     1.008   -2.358034    2.009026    9.151299
   5 H     1.0000    0     1.008   -0.009124    4.402132    8.796280
   6 O     8.0000    0    15.999   -5.178160    6.908192    7.441381
   7 C     6.0000    0    12.011   -0.771214    1.996654    4.087192
   8 C     6.0000    0    12.011   -1.221893    2.143252    1.194126
   9 O     8.0000    0    15.999    0.776213    0.484273    5.045168
  10 N     7.0000    0    14.007    0.000000    0.000000    0.000000
  11 H     1.0000    0     1.008   -0.364077    3.897110    0.466955
  12 H     1.0000    0     1.008   -3.254987    2.169963    0.749798
  13 H     1.0000    0     1.008   -0.890945   -1.698722    0.181461
  14 C     6.0000    0    12.011    2.585342    0.000000    0.000000
  15 C     6.0000    0    12.011    3.860469   -2.547339    0.566555
  16 O     8.0000    0    15.999    3.895918    1.907010    0.000000
  17 H     1.0000    0     1.008    5.506413   -2.895353   -0.652498
  18 H     1.0000    0     1.008    2.591839   -4.194215    0.573103
  19 O     8.0000    0    15.999   -4.041967    6.384466   11.467230
  20 H     1.0000    0     1.008   -2.865002    5.376072   12.471431
  21 N     7.0000    0    14.007    4.742959   -2.087199    3.248422
  22 H     1.0000    0     1.008    3.163757   -1.243540    4.241144
  23 H     1.0000    0     1.008    5.425861   -3.674066    4.145891
  24 H     1.0000    0     1.008    6.134229   -0.714536    3.210754

--------------------------------
INTERNAL COORDINATES (ANGSTROEM)
--------------------------------
 N      0   0   0     0.000000000000     0.00000000     0.00000000
 H      1   0   0     1.030988181699     0.00000000     0.00000000
 C      1   2   0     1.451813857282   112.67639342     0.00000000
 C      3   1   2     1.538010446566   106.23884605     1.05254066
 H      3   1   2     1.106437846078   111.01781056   121.34278471
 H      3   1   2     1.106700512624   111.08305308   240.86272868
 O      4   3   1     1.211146729792   121.21529219   359.90838093
 C      1   2   3     1.335707687588   122.63744302   179.65245865
 C      8   1   2     1.551350260877   115.73082247     2.23789966
 O      8   1   2     1.252211109843   122.12510060   181.57528020
 N      9   8   1     1.450417369042   108.80237768   190.50490773
 H      9   8   1     1.102499297767   108.85871657    72.04988137
 H      9   8   1     1.101351340989   111.19215547   312.60494279
 H     11   9   8     1.019592581021   116.24671817    75.78587518
 C     11   9   8     1.368104000000   116.47461938   290.54771012
 C     15  11   9     1.536972515930   116.04163246   138.33628736
 O     15  11   9     1.224481665459   124.49846405   330.87537374
 H     16  15  11     1.099407506324   112.35036442   138.80561161
 H     16  15  11     1.100085929483   115.30867044    10.76906590
 O      4   3   1     1.339898421392   116.89423113   179.93178341
 H     20   4   3     0.977263365982   111.91548510     0.02957138
 N     16  15  11     1.513754962185   100.20897198   254.87738033
 H     22  16  15     1.083345865356   106.43522986    46.00696463
 H     22  16  15     1.030191637770   114.16090596   170.75269077
 H     22  16  15     1.034436949455   108.32778171   292.85706108

---------------------------
INTERNAL COORDINATES (A.U.)
---------------------------
 N      0   0   0     0.000000000000     0.00000000     0.00000000
 H      1   0   0     1.948285310720     0.00000000     0.00000000
 C      1   2   0     2.743530587695   112.67639342     0.00000000
 C      3   1   2     2.906418535119   106.23884605     1.05254066
 H      3   1   2     2.090864513293   111.01781056   121.34278471
 H      3   1   2     2.091360881130   111.08305308   240.86272868
 O      4   3   1     2.288735627301   121.21529219   359.90838093
 C      1   2   3     2.524121724515   122.63744302   179.65245865
 C      8   1   2     2.931627130844   115.73082247     2.23789966
 O      8   1   2     2.366336059457   122.12510060   181.57528020
 N      9   8   1     2.740891607373   108.80237768   190.50490773
 H      9   8   1     2.083421735620   108.85871657    72.04988137
 H      9   8   1     2.081252411696   111.19215547   312.60494279
 H     11   9   8     1.926750746308   116.24671817    75.78587518
 C     11   9   8     2.585341882722   116.47461938   290.54771012
 C     15  11   9     2.904457130471   116.04163246   138.33628736
 O     15  11   9     2.313935003725   124.49846405   330.87537374
 H     16  15  11     2.077579096530   112.35036442   138.80561161
 H     16  15  11     2.078861130503   115.30867044    10.76906590
 O      4   3   1     2.532041063704   116.89423113   179.93178341
 H     20   4   3     1.846760122420   111.91548510     0.02957138
 N     16  15  11     2.860582312395   100.20897198   254.87738033
 H     22  16  15     2.047226993840   106.43522986    46.00696463
 H     22  16  15     1.946780060842   114.16090596   170.75269077
 H     22  16  15     1.954802537278   108.32778171   292.85706108

---------------------
BASIS SET INFORMATION
---------------------
There are 4 groups of distinct atoms

 Group   1 Type N   : 11s6p2d1f contracted to 5s3p2d1f pattern {62111/411/11/1}
 Group   2 Type H   : 5s2p1d contracted to 3s2p1d pattern {311/11/1}
 Group   3 Type C   : 11s6p2d1f contracted to 5s3p2d1f pattern {62111/411/11/1}
 Group   4 Type O   : 11s6p2d1f contracted to 5s3p2d1f pattern {62111/411/11/1}

Atom   0N    basis set group =>   1
Atom   1H    basis set group =>   2
Atom   2C    basis set group =>   3
Atom   3C    basis set group =>   3
Atom   4H    basis set group =>   2
Atom   5H    basis set group =>   2
Atom   6O    basis set group =>   4
Atom   7C    basis set group =>   3
Atom   8C    basis set group =>   3
Atom   9O    basis set group =>   4
Atom  10N    basis set group =>   1
Atom  11H    basis set group =>   2
Atom  12H    basis set group =>   2
Atom  13H    basis set group =>   2
Atom  14C    basis set group =>   3
Atom  15C    basis set group =>   3
Atom  16O    basis set group =>   4
Atom  17H    basis set group =>   2
Atom  18H    basis set group =>   2
Atom  19O    basis set group =>   4
Atom  20H    basis set group =>   2
Atom  21N    basis set group =>   1
Atom  22H    basis set group =>   2
Atom  23H    basis set group =>   2
Atom  24H    basis set group =>   2
---------------------------------
AUXILIARY/J BASIS SET INFORMATION
---------------------------------
There are 4 groups of distinct atoms

 Group   1 Type N   : 12s5p4d2f1g contracted to 6s4p3d1f1g pattern {711111/2111/211/2/1}
 Group   2 Type H   : 5s2p1d contracted to 3s1p1d pattern {311/2/1}
 Group   3 Type C   : 12s5p4d2f1g contracted to 6s4p3d1f1g pattern {711111/2111/211/2/1}
 Group   4 Type O   : 12s5p4d2f1g contracted to 6s4p3d1f1g pattern {711111/2111/211/2/1}

Atom   0N    basis set group =>   1
Atom   1H    basis set group =>   2
Atom   2C    basis set group =>   3
Atom   3C    basis set group =>   3
Atom   4H    basis set group =>   2
Atom   5H    basis set group =>   2
Atom   6O    basis set group =>   4
Atom   7C    basis set group =>   3
Atom   8C    basis set group =>   3
Atom   9O    basis set group =>   4
Atom  10N    basis set group =>   1
Atom  11H    basis set group =>   2
Atom  12H    basis set group =>   2
Atom  13H    basis set group =>   2
Atom  14C    basis set group =>   3
Atom  15C    basis set group =>   3
Atom  16O    basis set group =>   4
Atom  17H    basis set group =>   2
Atom  18H    basis set group =>   2
Atom  19O    basis set group =>   4
Atom  20H    basis set group =>   2
Atom  21N    basis set group =>   1
Atom  22H    basis set group =>   2
Atom  23H    basis set group =>   2
Atom  24H    basis set group =>   2


           ************************************************************
           *        Program running with 8 parallel MPI-processes     *
           *              working on a common directory               *
           ************************************************************
------------------------------------------------------------------------------
                           ORCA GTO INTEGRAL CALCULATION
                           -- RI-GTO INTEGRALS CHOSEN --
------------------------------------------------------------------------------
------------------------------------------------------------------------------
                   ___                                                        
                  /   \      - P O W E R E D   B Y -                         
                 /     \                                                     
                 |  |  |   _    _      __       _____    __    __             
                 |  |  |  | |  | |    /  \     |  _  \  |  |  /  |          
                  \  \/   | |  | |   /    \    | | | |  |  | /  /          
                 / \  \   | |__| |  /  /\  \   | |_| |  |  |/  /          
                |  |  |   |  __  | /  /__\  \  |    /   |      \           
                |  |  |   | |  | | |   __   |  |    \   |  |\   \          
                \     /   | |  | | |  |  |  |  | |\  \  |  | \   \       
                 \___/    |_|  |_| |__|  |__|  |_| \__\ |__|  \__/        
                                                                              
                      - O R C A' S   B I G   F R I E N D -                    
                                      &                                       
                       - I N T E G R A L  F E E D E R -                       
                                                                              
 v1 FN, 2020, v2 2021                                                         
------------------------------------------------------------------------------


Reading SHARK input file GGG-H_tt_013_OptFreq.SHARKINP.tmp ... ok
----------------------
SHARK INTEGRAL PACKAGE
----------------------

Number of atoms                             ...     25
Number of basis functions                   ...    571
Number of shells                            ...    215
Maximum angular momentum                    ...      3
Integral batch strategy                     ... SHARK/LIBINT Hybrid
RI-J (if used) integral strategy            ... SPLIT-RIJ (Revised 2003 algorithm where possible)
Printlevel                                  ...      1
Contraction scheme used                     ... SEGMENTED contraction
Coulomb Range Separation                    ... NOT USED
Exchange Range Separation                   ... Long Range
   Mu parameter                             ...  0.300000
   Scaling (regular/separated)              ...  0.167000  0.833000
Finite Nucleus Model                        ... NOT USED
Auxiliary Coulomb fitting basis             ... AVAILABLE
   # of basis functions in Aux-J            ...    769
   # of shells in Aux-J                     ...    255
   Maximum angular momentum in Aux-J        ...      4
Auxiliary J/K fitting basis                 ... NOT available
Auxiliary Correlation fitting basis         ... NOT available
Auxiliary 'external' fitting basis          ... NOT available
Integral threshold                          ...     1.000000e-12
Primitive cut-off                           ...     1.000000e-14
Primitive pair pre-selection threshold      ...     1.000000e-14

Calculating pre-screening integrals         ... done (  0.0 sec) Dimension = 215
Organizing shell pair data                  ... done (  0.2 sec)
Shell pair information
Total number of shell pairs                 ...     23220
Shell pairs after pre-screening             ...     18391
Total number of primitive shell pairs       ...     63868
Primitive shell pairs kept                  ...     37082
          la=0 lb=0:   4073 shell pairs
          la=1 lb=0:   5202 shell pairs
          la=1 lb=1:   1716 shell pairs
          la=2 lb=0:   2893 shell pairs
          la=2 lb=1:   1894 shell pairs
          la=2 lb=2:    544 shell pairs
          la=3 lb=0:    999 shell pairs
          la=3 lb=1:    648 shell pairs
          la=3 lb=2:    356 shell pairs
          la=3 lb=3:     66 shell pairs

Calculating one electron integrals          ... done (  0.0 sec)
Calculating RI/J V-Matrix + Cholesky decomp.... done (  0.9 sec)
Calculating Nuclear repulsion               ... done (  0.0 sec) ENN=    834.034110563057 Eh

SHARK setup successfully completed in   2.7 seconds

Maximum memory used throughout the entire GTOINT-calculation: 30.3 MB


           ************************************************************
           *        Program running with 8 parallel MPI-processes     *
           *              working on a common directory               *
           ************************************************************
-------------------------------------------------------------------------------
                                 ORCA SCF
-------------------------------------------------------------------------------

------------
SCF SETTINGS
------------
Hamiltonian:
 Density Functional     Method          .... DFT(GTOs)
 Exchange Functional    Exchange        .... WB97X-V
 Correlation Functional Correlation     .... WB97X-V
 Gradients option       PostSCFGGA      .... off
 Hybrid DFT is turned on
   Fraction HF Exchange ScalHFX         ....  0.167000
   Scaling of DF-GGA-X  ScalDFX         ....  0.000000
   Scaling of DF-GGA-C  ScalDFC         ....  1.000000
   Scaling of DF-LDA-C  ScalLDAC        ....  1.000000
   Perturbative correction              ....  0.000000
   Density functional embedding theory  .... OFF
 Long-range corrected/Screened/Range-Separated Hybrid DFT is turned on
   Amount of maximum screened exact exchange              ....  0.833000
   Range separation parameter mu (erf(mu*r12)/r12)        ....  0.300000
 RI-approximation to the Coulomb term is turned on
   Number of AuxJ basis functions       .... 769
   RIJ-COSX (HFX calculated with COS-X)).... on


General Settings:
 Integral files         IntName         .... GGG-H_tt_013_OptFreq
 Hartree-Fock type      HFTyp           .... RHF
 Total Charge           Charge          ....    1
 Multiplicity           Mult            ....    1
 Number of Electrons    NEL             ....  100
 Basis Dimension        Dim             ....  571
 Nuclear Repulsion      ENuc            ....    834.0341105631 Eh

Convergence Acceleration:
 DIIS                   CNVDIIS         .... on
   Start iteration      DIISMaxIt       ....    12
   Startup error        DIISStart       ....  0.200000
   # of expansion vecs  DIISMaxEq       ....     5
   Bias factor          DIISBfac        ....   1.050
   Max. coefficient     DIISMaxC        ....  10.000
 Trust-Rad. Augm. Hess. CNVTRAH         .... auto
   Auto Start mean grad. ratio tolernc. ....  1.125000
   Auto Start start iteration           ....    20
   Auto Start num. interpolation iter.  ....    10
   Max. Number of Micro iterations      ....    16
   Max. Number of Macro iterations      .... Maxiter - #DIIS iter
   Number of Davidson start vectors     ....     2
   Converg. threshold I  (grad. norm)   ....   2.000e-06
   Converg. threshold II (energy diff.) ....   1.000e-09
   Grad. Scal. Fac. for Micro threshold ....   0.100
   Minimum threshold for Micro iter.    ....   0.010
   NR start threshold (gradient norm)   ....   0.001
   Initial trust radius                 ....   0.400
   Minimum AH scaling param. (alpha)    ....   1.000
   Maximum AH scaling param. (alpha)    .... 1000.000
   Orbital update algorithm             .... Taylor
   White noise on init. David. guess    .... on
   Maximum white noise                  ....   0.010
   Quad. conv. algorithm                .... NR
 SOSCF                  CNVSOSCF        .... on
   Start iteration      SOSCFMaxIt      ....   150
   Startup grad/error   SOSCFStart      ....  0.003300
 Level Shifting         CNVShift        .... on
   Level shift para.    LevelShift      ....    0.2500
   Turn off err/grad.   ShiftErr        ....    0.0010
 Zerner damping         CNVZerner       .... off
 Static damping         CNVDamp         .... on
   Fraction old density DampFac         ....    0.7000
   Max. Damping (<1)    DampMax         ....    0.9800
   Min. Damping (>=0)   DampMin         ....    0.0000
   Turn off err/grad.   DampErr         ....    0.1000
 Fernandez-Rico         CNVRico         .... off

SCF Procedure:
 Maximum # iterations   MaxIter         ....   125
 SCF integral mode      SCFMode         .... Direct
   Integral package                     .... SHARK and LIBINT hybrid scheme
 Reset frequency        DirectResetFreq ....    20
 Integral Threshold     Thresh          ....  1.000e-12 Eh
 Primitive CutOff       TCut            ....  1.000e-14 Eh

Convergence Tolerance:
 Convergence Check Mode ConvCheckMode   .... Total+1el-Energy
 Convergence forced     ConvForced      .... 0
 Energy Change          TolE            ....  1.000e-09 Eh
 1-El. energy change                    ....  1.000e-06 Eh
 Orbital Gradient       TolG            ....  2.000e-06
 Orbital Rotation angle TolX            ....  2.000e-06
 DIIS Error             TolErr          ....  1.000e-08


Diagonalization of the overlap matrix:
Smallest eigenvalue                        ... 1.340e-04
Time for diagonalization                   ...    0.045 sec
Threshold for overlap eigenvalues          ... 1.000e-08
Number of eigenvalues below threshold      ... 0
Time for construction of square roots      ...    0.318 sec
Total time needed                          ...    0.373 sec

Time for model grid setup =    0.770 sec

------------------------------
INITIAL GUESS: MODEL POTENTIAL
------------------------------
Loading Hartree-Fock densities                     ... done
Calculating cut-offs                               ... done
Initializing the effective Hamiltonian             ... done
Setting up the integral package (SHARK)            ... done
Starting the Coulomb interaction                   ... done (   0.6 sec)
Reading the grid                                   ... done
Mapping shells                                     ... done
Starting the XC term evaluation                    ... done (   0.1 sec)
  promolecular density results
     # of electrons  =    100.994942756
     EX              =    -58.971176160
     EC              =     -4.267521354
     EX+EC           =    -63.238697514
Transforming the Hamiltonian                       ... done (   0.1 sec)
Diagonalizing the Hamiltonian                      ... done (   0.0 sec)
Back transforming the eigenvectors                 ... done (   0.0 sec)
Now organizing SCF variables                       ... done
                      ------------------
                      INITIAL GUESS DONE (   1.6 sec)
                      ------------------
-------------------
DFT GRID GENERATION
-------------------

General Integration Accuracy     IntAcc      ... 4.959
Radial Grid Type                 RadialGrid  ... OptM3 with GC (2021)
Angular Grid (max. ang.)         AngularGrid ... 6 (Lebedev-590)
Angular grid pruning method      GridPruning ... 4 (adaptive)
Weight generation scheme         WeightScheme... Becke
Basis function cutoff            BFCut       ... 1.0000e-12
Integration weight cutoff        WCut        ... 1.0000e-14
Angular grids for H and He will be reduced by one unit
Partially contracted basis set               ... off
Rotationally invariant grid construction     ... off

Total number of grid points                  ...   289352
Total number of batches                      ...     4534
Average number of points per batch           ...       63
Average number of grid points per atom       ...    11574
Time for grid setup =    3.602 sec

--------------------
COSX GRID GENERATION
--------------------

GRIDX 1
-------
General Integration Accuracy     IntAcc      ... 4.020
Radial Grid Type                 RadialGrid  ... OptM3 with GC (2021)
Angular Grid (max. ang.)         AngularGrid ... 2 (Lebedev-110)
Angular grid pruning method      GridPruning ... 4 (adaptive)
Weight generation scheme         WeightScheme... Becke
Basis function cutoff            BFCut       ... 1.0000e-12
Integration weight cutoff        WCut        ... 1.0000e-14
Angular grids for H and He will be reduced by one unit
Partially contracted basis set               ... on
Rotationally invariant grid construction     ... off

Total number of grid points                  ...    32274
Total number of batches                      ...      517
Average number of points per batch           ...       62
Average number of grid points per atom       ...     1291
UseSFitting                                  ... on

GRIDX 2
-------
General Integration Accuracy     IntAcc      ... 4.338
Radial Grid Type                 RadialGrid  ... OptM3 with GC (2021)
Angular Grid (max. ang.)         AngularGrid ... 3 (Lebedev-194)
Angular grid pruning method      GridPruning ... 4 (adaptive)
Weight generation scheme         WeightScheme... Becke
Basis function cutoff            BFCut       ... 1.0000e-12
Integration weight cutoff        WCut        ... 1.0000e-14
Angular grids for H and He will be reduced by one unit
Partially contracted basis set               ... on
Rotationally invariant grid construction     ... off

Total number of grid points                  ...    70816
Total number of batches                      ...     1120
Average number of points per batch           ...       63
Average number of grid points per atom       ...     2833
UseSFitting                                  ... on

GRIDX 3
-------
General Integration Accuracy     IntAcc      ... 4.871
Radial Grid Type                 RadialGrid  ... OptM3 with GC (2021)
Angular Grid (max. ang.)         AngularGrid ... 4 (Lebedev-302)
Angular grid pruning method      GridPruning ... 4 (adaptive)
Weight generation scheme         WeightScheme... Becke
Basis function cutoff            BFCut       ... 1.0000e-12
Integration weight cutoff        WCut        ... 1.0000e-14
Angular grids for H and He will be reduced by one unit
Partially contracted basis set               ... on
Rotationally invariant grid construction     ... off

Total number of grid points                  ...   134165
Total number of batches                      ...     2110
Average number of points per batch           ...       63
Average number of grid points per atom       ...     5367
UseSFitting                                  ... on

Time for X-Grid setup             =   12.812 sec

--------------
SCF ITERATIONS
--------------
ITER       Energy         Delta-E        Max-DP      RMS-DP      [F,P]     Damp
               ***  Starting incremental Fock matrix formation  ***
  0   -701.1553409537   0.000000000000 0.07468880  0.00049723  0.3428475 0.7000
  1   -701.2027952576  -0.047454303927 0.06911217  0.00045348  0.2343908 0.7000
                               ***Turning on DIIS***
  2   -701.2304991979  -0.027703940310 0.05473195  0.00035394  0.1627784 0.7000
  3   -701.2487376270  -0.018238429060 0.04295315  0.00028238  0.1121948 0.7000
  4   -701.2615370162  -0.012799389207 0.10861126  0.00073987  0.0774312 0.0000
                      *** Initiating the SOSCF procedure ***
                           *** Shutting down DIIS ***
                      *** Re-Reading the Fockian *** 
                      *** Removing any level shift *** 
ITER      Energy       Delta-E        Grad      Rot      Max-DP    RMS-DP
  5   -701.29238587  -0.0308488516  0.001484  0.001484  0.006531  0.000070
               *** Restarting incremental Fock matrix formation ***
  6   -701.29251611  -0.0001302419  0.000876  0.002022  0.003559  0.000042
  7   -701.29255298  -0.0000368714  0.000575  0.001938  0.002177  0.000030
  8   -701.29256207  -0.0000090868  0.000317  0.000463  0.000787  0.000010
  9   -701.29256426  -0.0000021910  0.000090  0.000090  0.000404  0.000005
 10   -701.29256447  -0.0000002111  0.000033  0.000077  0.000130  0.000002
 11   -701.29256460  -0.0000001307  0.000010  0.000030  0.000015  0.000000
 12   -701.29256460  -0.0000000043  0.000006  0.000016  0.000018  0.000000
 13   -701.29256461  -0.0000000018  0.000002  0.000009  0.000006  0.000000
 14   -701.29256461   0.0000000000  0.000001  0.000003  0.000002  0.000000
                  ***Gradient check signals convergence***
              ***Rediagonalizing the Fockian in SOSCF/NRSCF***

               *****************************************************
               *                     SUCCESS                       *
               *           SCF CONVERGED AFTER  15 CYCLES          *
               *****************************************************

Old exchange energy                            =    -27.829756358 Eh
New exchange energy                            =    -27.829754667 Eh
Exchange energy change after final integration =      0.000001691 Eh
Total energy after final integration           =   -701.292562916 Eh
Final COS-X integration done in                =    30.609 sec

----------------
TOTAL SCF ENERGY
----------------

Total Energy       :         -701.29256292 Eh          -19083.14081 eV

Components:
Nuclear Repulsion  :          834.03411056 Eh           22695.22195 eV
Electronic Energy  :        -1535.32667348 Eh          -41778.36276 eV
One Electron Energy:        -2596.57803464 Eh          -70656.48043 eV
Two Electron Energy:         1061.25136116 Eh           28878.11767 eV
Max COSX asymmetry :            0.00000103 Eh               0.00003 eV

Virial components:
Potential Energy   :        -1399.24457072 Eh          -38075.38048 eV
Kinetic Energy     :          697.95200780 Eh           18992.23968 eV
Virial Ratio       :            2.00478622


DFT components:
N(Alpha)           :       49.999999114808 electrons
N(Beta)            :       49.999999114808 electrons
N(Total)           :       99.999998229616 electrons
E(X)               :      -60.044209775988 Eh       
E(C)               :       -4.265044430584 Eh       
E(XC)              :      -64.309254206571 Eh       
DFET-embed. en.    :        0.000000000000 Eh       

---------------
SCF CONVERGENCE
---------------

  Last Energy change         ...    9.3678e-11  Tolerance :   1.0000e-09
  Last MAX-Density change    ...    1.7764e-15  Tolerance :   1.0000e-08
  Last RMS-Density change    ...    1.4924e-17  Tolerance :   1.0000e-09
  Last Orbital Gradient      ...    3.1777e-07  Tolerance :   2.0000e-06
  Last Orbital Rotation      ...    8.6291e-07  Tolerance :   2.0000e-06

             **** THE GBW FILE WAS UPDATED (GGG-H_tt_013_OptFreq.gbw) ****
             **** DENSITY GGG-H_tt_013_OptFreq.scfp WAS UPDATED ****
             **** ENERGY FILE WAS UPDATED (GGG-H_tt_013_OptFreq.en.tmp) ****
             **** THE GBW FILE WAS UPDATED (GGG-H_tt_013_OptFreq.gbw) ****
             **** DENSITY GGG-H_tt_013_OptFreq.scfp WAS UPDATED ****
----------------
ORBITAL ENERGIES
----------------

  NO   OCC          E(Eh)            E(eV) 
   0   2.0000     -19.389154      -527.6057 
   1   2.0000     -19.353148      -526.6259 
   2   2.0000     -19.347217      -526.4645 
   3   2.0000     -19.328380      -525.9520 
   4   2.0000     -14.690932      -399.7606 
   5   2.0000     -14.599391      -397.2696 
   6   2.0000     -14.594115      -397.1261 
   7   2.0000     -10.547252      -287.0053 
   8   2.0000     -10.544987      -286.9437 
   9   2.0000     -10.540427      -286.8196 
  10   2.0000     -10.511645      -286.0364 
  11   2.0000     -10.474718      -285.0316 
  12   2.0000     -10.469492      -284.8894 
  13   2.0000      -1.364388       -37.1269 
  14   2.0000      -1.347831       -36.6763 
  15   2.0000      -1.329586       -36.1799 
  16   2.0000      -1.284922       -34.9645 
  17   2.0000      -1.281112       -34.8608 
  18   2.0000      -1.220889       -33.2221 
  19   2.0000      -1.213203       -33.0129 
  20   2.0000      -1.056049       -28.7366 
  21   2.0000      -1.029490       -28.0138 
  22   2.0000      -0.978785       -26.6341 
  23   2.0000      -0.887339       -24.1457 
  24   2.0000      -0.881027       -23.9740 
  25   2.0000      -0.864327       -23.5195 
  26   2.0000      -0.861523       -23.4432 
  27   2.0000      -0.844161       -22.9708 
  28   2.0000      -0.818356       -22.2686 
  29   2.0000      -0.792424       -21.5629 
  30   2.0000      -0.766926       -20.8691 
  31   2.0000      -0.755149       -20.5487 
  32   2.0000      -0.746605       -20.3162 
  33   2.0000      -0.737086       -20.0571 
  34   2.0000      -0.733760       -19.9666 
  35   2.0000      -0.704294       -19.1648 
  36   2.0000      -0.699019       -19.0213 
  37   2.0000      -0.690807       -18.7978 
  38   2.0000      -0.681253       -18.5378 
  39   2.0000      -0.667072       -18.1519 
  40   2.0000      -0.656279       -17.8583 
  41   2.0000      -0.638660       -17.3788 
  42   2.0000      -0.624971       -17.0063 
  43   2.0000      -0.621488       -16.9115 
  44   2.0000      -0.554758       -15.0957 
  45   2.0000      -0.553851       -15.0710 
  46   2.0000      -0.536845       -14.6083 
  47   2.0000      -0.525464       -14.2986 
  48   2.0000      -0.518849       -14.1186 
  49   2.0000      -0.517589       -14.0843 
  50   0.0000      -0.085349        -2.3225 
  51   0.0000      -0.063161        -1.7187 
  52   0.0000      -0.055211        -1.5024 
  53   0.0000      -0.031545        -0.8584 
  54   0.0000      -0.028575        -0.7776 
  55   0.0000      -0.020658        -0.5621 
  56   0.0000      -0.009855        -0.2682 
  57   0.0000      -0.001500        -0.0408 
  58   0.0000       0.013287         0.3615 
  59   0.0000       0.026488         0.7208 
  60   0.0000       0.036372         0.9897 
  61   0.0000       0.047650         1.2966 
  62   0.0000       0.061541         1.6746 
  63   0.0000       0.068853         1.8736 
  64   0.0000       0.076925         2.0932 
  65   0.0000       0.080273         2.1843 
  66   0.0000       0.087616         2.3842 
  67   0.0000       0.102392         2.7862 
  68   0.0000       0.112485         3.0609 
  69   0.0000       0.119635         3.2554 
  70   0.0000       0.120365         3.2753 
  71   0.0000       0.126993         3.4557 
  72   0.0000       0.139765         3.8032 
  73   0.0000       0.153167         4.1679 
  74   0.0000       0.157163         4.2766 
  75   0.0000       0.172737         4.7004 
  76   0.0000       0.176542         4.8040 
  77   0.0000       0.183550         4.9947 
  78   0.0000       0.202704         5.5159 
  79   0.0000       0.207481         5.6458 
  80   0.0000       0.226001         6.1498 
  81   0.0000       0.235276         6.4022 
  82   0.0000       0.244386         6.6501 
  83   0.0000       0.250987         6.8297 
  84   0.0000       0.253459         6.8970 
  85   0.0000       0.264430         7.1955 
  86   0.0000       0.268997         7.3198 
  87   0.0000       0.282241         7.6802 
  88   0.0000       0.290753         7.9118 
  89   0.0000       0.292720         7.9653 
  90   0.0000       0.301737         8.2107 
  91   0.0000       0.310454         8.4479 
  92   0.0000       0.315728         8.5914 
  93   0.0000       0.322845         8.7851 
  94   0.0000       0.326990         8.8978 
  95   0.0000       0.327814         8.9203 
  96   0.0000       0.341615         9.2958 
  97   0.0000       0.346757         9.4357 
  98   0.0000       0.354291         9.6407 
  99   0.0000       0.358677         9.7601 
 100   0.0000       0.361857         9.8466 
 101   0.0000       0.364568         9.9204 
 102   0.0000       0.372646        10.1402 
 103   0.0000       0.378387        10.2964 
 104   0.0000       0.385168        10.4810 
 105   0.0000       0.386597        10.5198 
 106   0.0000       0.397327        10.8118 
 107   0.0000       0.402028        10.9398 
 108   0.0000       0.410785        11.1780 
 109   0.0000       0.423041        11.5115 
 110   0.0000       0.440454        11.9854 
 111   0.0000       0.443193        12.0599 
 112   0.0000       0.447321        12.1722 
 113   0.0000       0.462851        12.5948 
 114   0.0000       0.465363        12.6632 
 115   0.0000       0.477492        12.9932 
 116   0.0000       0.492155        13.3922 
 117   0.0000       0.499517        13.5926 
 118   0.0000       0.503261        13.6944 
 119   0.0000       0.513242        13.9660 
 120   0.0000       0.519222        14.1287 
 121   0.0000       0.530812        14.4441 
 122   0.0000       0.540306        14.7025 
 123   0.0000       0.553258        15.0549 
 124   0.0000       0.565546        15.3893 
 125   0.0000       0.582063        15.8387 
 126   0.0000       0.585491        15.9320 
 127   0.0000       0.593689        16.1551 
 128   0.0000       0.597558        16.2604 
 129   0.0000       0.613351        16.6901 
 130   0.0000       0.624419        16.9913 
 131   0.0000       0.639881        17.4121 
 132   0.0000       0.647864        17.6293 
 133   0.0000       0.655568        17.8389 
 134   0.0000       0.674570        18.3560 
 135   0.0000       0.683487        18.5986 
 136   0.0000       0.700114        19.0511 
 137   0.0000       0.706584        19.2271 
 138   0.0000       0.720687        19.6109 
 139   0.0000       0.732516        19.9328 
 140   0.0000       0.740375        20.1466 
 141   0.0000       0.745553        20.2875 
 142   0.0000       0.756570        20.5873 
 143   0.0000       0.765498        20.8303 
 144   0.0000       0.768721        20.9180 
 145   0.0000       0.778170        21.1751 
 146   0.0000       0.801656        21.8142 
 147   0.0000       0.826997        22.5037 
 148   0.0000       0.828835        22.5537 
 149   0.0000       0.834308        22.7027 
 150   0.0000       0.851960        23.1830 
 151   0.0000       0.862795        23.4778 
 152   0.0000       0.871088        23.7035 
 153   0.0000       0.883882        24.0516 
 154   0.0000       0.889450        24.2032 
 155   0.0000       0.901354        24.5271 
 156   0.0000       0.905704        24.6455 
 157   0.0000       0.915277        24.9060 
 158   0.0000       0.928153        25.2563 
 159   0.0000       0.930821        25.3289 
 160   0.0000       0.959685        26.1143 
 161   0.0000       0.976319        26.5670 
 162   0.0000       0.978006        26.6129 
 163   0.0000       0.982686        26.7402 
 164   0.0000       0.989170        26.9167 
 165   0.0000       0.996932        27.1279 
 166   0.0000       0.997572        27.1453 
 167   0.0000       1.013934        27.5905 
 168   0.0000       1.025343        27.9010 
 169   0.0000       1.037727        28.2380 
 170   0.0000       1.047807        28.5123 
 171   0.0000       1.058078        28.7918 
 172   0.0000       1.070461        29.1287 
 173   0.0000       1.082087        29.4451 
 174   0.0000       1.089207        29.6388 
 175   0.0000       1.094101        29.7720 
 176   0.0000       1.099615        29.9220 
 177   0.0000       1.114381        30.3238 
 178   0.0000       1.119791        30.4711 
 179   0.0000       1.134866        30.8813 
 180   0.0000       1.158159        31.5151 
 181   0.0000       1.169330        31.8191 
 182   0.0000       1.180328        32.1184 
 183   0.0000       1.184465        32.2309 
 184   0.0000       1.194154        32.4946 
 185   0.0000       1.200536        32.6683 
 186   0.0000       1.208944        32.8971 
 187   0.0000       1.232032        33.5253 
 188   0.0000       1.237502        33.6741 
 189   0.0000       1.249244        33.9937 
 190   0.0000       1.260069        34.2882 
 191   0.0000       1.267000        34.4768 
 192   0.0000       1.294594        35.2277 
 193   0.0000       1.309323        35.6285 
 194   0.0000       1.327870        36.1332 
 195   0.0000       1.334587        36.3160 
 196   0.0000       1.359932        37.0056 
 197   0.0000       1.360563        37.0228 
 198   0.0000       1.367733        37.2179 
 199   0.0000       1.381685        37.5976 
 200   0.0000       1.384478        37.6736 
 201   0.0000       1.396940        38.0127 
 202   0.0000       1.406934        38.2846 
 203   0.0000       1.423255        38.7287 
 204   0.0000       1.428805        38.8798 
 205   0.0000       1.441470        39.2244 
 206   0.0000       1.448908        39.4268 
 207   0.0000       1.453976        39.5647 
 208   0.0000       1.464695        39.8564 
 209   0.0000       1.468890        39.9705 
 210   0.0000       1.491000        40.5722 
 211   0.0000       1.495679        40.6995 
 212   0.0000       1.498517        40.7767 
 213   0.0000       1.522623        41.4327 
 214   0.0000       1.526079        41.5267 
 215   0.0000       1.547632        42.1132 
 216   0.0000       1.554789        42.3080 
 217   0.0000       1.562151        42.5083 
 218   0.0000       1.579822        42.9891 
 219   0.0000       1.593811        43.3698 
 220   0.0000       1.600020        43.5388 
 221   0.0000       1.617403        44.0118 
 222   0.0000       1.619399        44.0661 
 223   0.0000       1.630145        44.3585 
 224   0.0000       1.655314        45.0434 
 225   0.0000       1.666000        45.3342 
 226   0.0000       1.678732        45.6806 
 227   0.0000       1.708290        46.4849 
 228   0.0000       1.716694        46.7136 
 229   0.0000       1.750846        47.6429 
 230   0.0000       1.751519        47.6613 
 231   0.0000       1.789143        48.6850 
 232   0.0000       1.797606        48.9154 
 233   0.0000       1.804688        49.1081 
 234   0.0000       1.834227        49.9119 
 235   0.0000       1.870724        50.9050 
 236   0.0000       1.892611        51.5006 
 237   0.0000       1.897317        51.6286 
 238   0.0000       1.910121        51.9770 
 239   0.0000       1.917765        52.1850 
 240   0.0000       1.939825        52.7853 
 241   0.0000       1.951070        53.0913 
 242   0.0000       1.959775        53.3282 
 243   0.0000       1.962209        53.3944 
 244   0.0000       1.974486        53.7285 
 245   0.0000       2.008334        54.6495 
 246   0.0000       2.011505        54.7358 
 247   0.0000       2.029423        55.2234 
 248   0.0000       2.037849        55.4527 
 249   0.0000       2.092111        56.9292 
 250   0.0000       2.108359        57.3714 
 251   0.0000       2.125532        57.8387 
 252   0.0000       2.138769        58.1989 
 253   0.0000       2.157249        58.7017 
 254   0.0000       2.175884        59.2088 
 255   0.0000       2.189580        59.5815 
 256   0.0000       2.227078        60.6019 
 257   0.0000       2.231465        60.7212 
 258   0.0000       2.264745        61.6268 
 259   0.0000       2.295856        62.4734 
 260   0.0000       2.305352        62.7318 
 261   0.0000       2.328178        63.3530 
 262   0.0000       2.353606        64.0449 
 263   0.0000       2.367232        64.4157 
 264   0.0000       2.369945        64.4895 
 265   0.0000       2.401153        65.3387 
 266   0.0000       2.420638        65.8689 
 267   0.0000       2.441611        66.4396 
 268   0.0000       2.459735        66.9328 
 269   0.0000       2.488949        67.7277 
 270   0.0000       2.493707        67.8572 
 271   0.0000       2.502409        68.0940 
 272   0.0000       2.516838        68.4866 
 273   0.0000       2.525803        68.7306 
 274   0.0000       2.533810        68.9485 
 275   0.0000       2.562441        69.7276 
 276   0.0000       2.585559        70.3566 
 277   0.0000       2.597661        70.6859 
 278   0.0000       2.602664        70.8221 
 279   0.0000       2.614928        71.1558 
 280   0.0000       2.625240        71.4364 
 281   0.0000       2.633872        71.6713 
 282   0.0000       2.646943        72.0270 
 283   0.0000       2.656344        72.2828 
 284   0.0000       2.665247        72.5250 
 285   0.0000       2.679306        72.9076 
 286   0.0000       2.695978        73.3613 
 287   0.0000       2.700210        73.4765 
 288   0.0000       2.713871        73.8482 
 289   0.0000       2.723325        74.1054 
 290   0.0000       2.736550        74.4653 
 291   0.0000       2.763927        75.2103 
 292   0.0000       2.787580        75.8539 
 293   0.0000       2.797310        76.1187 
 294   0.0000       2.812035        76.5194 
 295   0.0000       2.822618        76.8074 
 296   0.0000       2.829929        77.0063 
 297   0.0000       2.830879        77.0321 
 298   0.0000       2.854451        77.6735 
 299   0.0000       2.867349        78.0245 
 300   0.0000       2.871494        78.1373 
 301   0.0000       2.880397        78.3796 
 302   0.0000       2.897310        78.8398 
 303   0.0000       2.898883        78.8826 
 304   0.0000       2.912591        79.2556 
 305   0.0000       2.938577        79.9627 
 306   0.0000       2.945954        80.1635 
 307   0.0000       2.953272        80.3626 
 308   0.0000       2.964775        80.6756 
 309   0.0000       2.970557        80.8330 
 310   0.0000       2.977983        81.0350 
 311   0.0000       2.997832        81.5752 
 312   0.0000       3.007941        81.8502 
 313   0.0000       3.028945        82.4218 
 314   0.0000       3.038137        82.6719 
 315   0.0000       3.045109        82.8616 
 316   0.0000       3.051959        83.0480 
 317   0.0000       3.059007        83.2398 
 318   0.0000       3.064477        83.3887 
 319   0.0000       3.079661        83.8018 
 320   0.0000       3.087769        84.0225 
 321   0.0000       3.093566        84.1802 
 322   0.0000       3.100230        84.3616 
 323   0.0000       3.115490        84.7768 
 324   0.0000       3.124904        85.0330 
 325   0.0000       3.145658        85.5977 
 326   0.0000       3.146309        85.6154 
 327   0.0000       3.166007        86.1514 
 328   0.0000       3.173333        86.3508 
 329   0.0000       3.183253        86.6207 
 330   0.0000       3.184269        86.6484 
 331   0.0000       3.198716        87.0415 
 332   0.0000       3.202871        87.1546 
 333   0.0000       3.219831        87.6160 
 334   0.0000       3.225172        87.7614 
 335   0.0000       3.242910        88.2441 
 336   0.0000       3.247081        88.3576 
 337   0.0000       3.259719        88.7015 
 338   0.0000       3.274521        89.1042 
 339   0.0000       3.277255        89.1786 
 340   0.0000       3.287769        89.4647 
 341   0.0000       3.305346        89.9430 
 342   0.0000       3.316112        90.2360 
 343   0.0000       3.333312        90.7040 
 344   0.0000       3.342175        90.9452 
 345   0.0000       3.346959        91.0754 
 346   0.0000       3.356158        91.3257 
 347   0.0000       3.368294        91.6559 
 348   0.0000       3.385148        92.1146 
 349   0.0000       3.388835        92.2149 
 350   0.0000       3.401361        92.5557 
 351   0.0000       3.405644        92.6723 
 352   0.0000       3.418268        93.0158 
 353   0.0000       3.419904        93.0603 
 354   0.0000       3.433668        93.4349 
 355   0.0000       3.438316        93.5613 
 356   0.0000       3.452262        93.9408 
 357   0.0000       3.461618        94.1954 
 358   0.0000       3.480005        94.6958 
 359   0.0000       3.492506        95.0359 
 360   0.0000       3.499672        95.2309 
 361   0.0000       3.512250        95.5732 
 362   0.0000       3.520184        95.7891 
 363   0.0000       3.528743        96.0220 
 364   0.0000       3.542562        96.3980 
 365   0.0000       3.549328        96.5821 
 366   0.0000       3.561513        96.9137 
 367   0.0000       3.568729        97.1100 
 368   0.0000       3.579501        97.4032 
 369   0.0000       3.595523        97.8392 
 370   0.0000       3.597210        97.8851 
 371   0.0000       3.617728        98.4434 
 372   0.0000       3.626151        98.6726 
 373   0.0000       3.641188        99.0818 
 374   0.0000       3.645699        99.2045 
 375   0.0000       3.663034        99.6762 
 376   0.0000       3.677996       100.0834 
 377   0.0000       3.705857       100.8415 
 378   0.0000       3.716783       101.1388 
 379   0.0000       3.721881       101.2775 
 380   0.0000       3.735688       101.6532 
 381   0.0000       3.753614       102.1410 
 382   0.0000       3.771164       102.6186 
 383   0.0000       3.776441       102.7622 
 384   0.0000       3.785088       102.9975 
 385   0.0000       3.797798       103.3433 
 386   0.0000       3.813670       103.7752 
 387   0.0000       3.824665       104.0744 
 388   0.0000       3.852158       104.8225 
 389   0.0000       3.861079       105.0653 
 390   0.0000       3.871669       105.3535 
 391   0.0000       3.884845       105.7120 
 392   0.0000       3.900242       106.1310 
 393   0.0000       3.904190       106.2384 
 394   0.0000       3.905535       106.2750 
 395   0.0000       3.951151       107.5163 
 396   0.0000       3.952419       107.5508 
 397   0.0000       3.962775       107.8326 
 398   0.0000       3.968322       107.9835 
 399   0.0000       3.976953       108.2184 
 400   0.0000       3.996813       108.7588 
 401   0.0000       4.003436       108.9390 
 402   0.0000       4.006973       109.0353 
 403   0.0000       4.020037       109.3908 
 404   0.0000       4.038150       109.8837 
 405   0.0000       4.070735       110.7703 
 406   0.0000       4.080882       111.0465 
 407   0.0000       4.099397       111.5503 
 408   0.0000       4.108257       111.7914 
 409   0.0000       4.112640       111.9106 
 410   0.0000       4.114369       111.9577 
 411   0.0000       4.151262       112.9616 
 412   0.0000       4.158614       113.1617 
 413   0.0000       4.179294       113.7244 
 414   0.0000       4.186166       113.9114 
 415   0.0000       4.190356       114.0254 
 416   0.0000       4.204106       114.3995 
 417   0.0000       4.212506       114.6281 
 418   0.0000       4.217951       114.7763 
 419   0.0000       4.239324       115.3579 
 420   0.0000       4.256651       115.8294 
 421   0.0000       4.258641       115.8835 
 422   0.0000       4.268871       116.1619 
 423   0.0000       4.280298       116.4728 
 424   0.0000       4.295554       116.8880 
 425   0.0000       4.312414       117.3467 
 426   0.0000       4.318899       117.5232 
 427   0.0000       4.349869       118.3659 
 428   0.0000       4.369096       118.8891 
 429   0.0000       4.401904       119.7819 
 430   0.0000       4.406250       119.9002 
 431   0.0000       4.425305       120.4187 
 432   0.0000       4.455453       121.2390 
 433   0.0000       4.482100       121.9642 
 434   0.0000       4.489417       122.1632 
 435   0.0000       4.510607       122.7399 
 436   0.0000       4.527353       123.1955 
 437   0.0000       4.531672       123.3131 
 438   0.0000       4.574654       124.4827 
 439   0.0000       4.590031       124.9011 
 440   0.0000       4.596697       125.0825 
 441   0.0000       4.621109       125.7468 
 442   0.0000       4.644700       126.3887 
 443   0.0000       4.656507       126.7100 
 444   0.0000       4.682682       127.4223 
 445   0.0000       4.699703       127.8854 
 446   0.0000       4.712432       128.2318 
 447   0.0000       4.728776       128.6765 
 448   0.0000       4.746273       129.1527 
 449   0.0000       4.757529       129.4589 
 450   0.0000       4.768473       129.7567 
 451   0.0000       4.796889       130.5300 
 452   0.0000       4.810180       130.8917 
 453   0.0000       4.826485       131.3353 
 454   0.0000       4.838855       131.6720 
 455   0.0000       4.853411       132.0680 
 456   0.0000       4.855617       132.1281 
 457   0.0000       4.875799       132.6772 
 458   0.0000       4.880950       132.8174 
 459   0.0000       4.902042       133.3913 
 460   0.0000       4.927893       134.0948 
 461   0.0000       4.941708       134.4707 
 462   0.0000       4.972112       135.2980 
 463   0.0000       4.985208       135.6544 
 464   0.0000       5.019376       136.5842 
 465   0.0000       5.032118       136.9309 
 466   0.0000       5.044125       137.2576 
 467   0.0000       5.073827       138.0659 
 468   0.0000       5.093233       138.5939 
 469   0.0000       5.101166       138.8098 
 470   0.0000       5.116081       139.2157 
 471   0.0000       5.139011       139.8396 
 472   0.0000       5.157942       140.3547 
 473   0.0000       5.172862       140.7607 
 474   0.0000       5.175383       140.8293 
 475   0.0000       5.177906       140.8980 
 476   0.0000       5.187612       141.1621 
 477   0.0000       5.210876       141.7951 
 478   0.0000       5.225127       142.1829 
 479   0.0000       5.236623       142.4957 
 480   0.0000       5.241135       142.6185 
 481   0.0000       5.268271       143.3569 
 482   0.0000       5.284950       143.8108 
 483   0.0000       5.304805       144.3511 
 484   0.0000       5.309844       144.4882 
 485   0.0000       5.324398       144.8842 
 486   0.0000       5.330026       145.0374 
 487   0.0000       5.352449       145.6476 
 488   0.0000       5.364270       145.9692 
 489   0.0000       5.385804       146.5552 
 490   0.0000       5.451104       148.3321 
 491   0.0000       5.457831       148.5151 
 492   0.0000       5.462942       148.6542 
 493   0.0000       5.501094       149.6924 
 494   0.0000       5.508098       149.8830 
 495   0.0000       5.518329       150.1614 
 496   0.0000       5.527347       150.4067 
 497   0.0000       5.553326       151.1137 
 498   0.0000       5.566390       151.4692 
 499   0.0000       5.588108       152.0601 
 500   0.0000       5.593150       152.1973 
 501   0.0000       5.598328       152.3383 
 502   0.0000       5.623982       153.0363 
 503   0.0000       5.636483       153.3765 
 504   0.0000       5.668308       154.2425 
 505   0.0000       5.682366       154.6250 
 506   0.0000       5.695509       154.9827 
 507   0.0000       5.710742       155.3972 
 508   0.0000       5.756997       156.6559 
 509   0.0000       5.770644       157.0272 
 510   0.0000       5.798400       157.7825 
 511   0.0000       5.857052       159.3785 
 512   0.0000       5.886012       160.1665 
 513   0.0000       5.899583       160.5358 
 514   0.0000       5.905784       160.7046 
 515   0.0000       5.913699       160.9199 
 516   0.0000       5.954296       162.0246 
 517   0.0000       5.985895       162.8845 
 518   0.0000       6.025323       163.9574 
 519   0.0000       6.084912       165.5789 
 520   0.0000       6.114984       166.3972 
 521   0.0000       6.126520       166.7111 
 522   0.0000       6.150329       167.3590 
 523   0.0000       6.190336       168.4476 
 524   0.0000       6.291128       171.1903 
 525   0.0000       6.314692       171.8315 
 526   0.0000       6.316401       171.8780 
 527   0.0000       6.352157       172.8510 
 528   0.0000       6.377282       173.5347 
 529   0.0000       6.402828       174.2298 
 530   0.0000       6.409008       174.3980 
 531   0.0000       6.438305       175.1952 
 532   0.0000       6.443095       175.3255 
 533   0.0000       6.475022       176.1943 
 534   0.0000       6.498445       176.8317 
 535   0.0000       6.511314       177.1819 
 536   0.0000       6.566588       178.6860 
 537   0.0000       6.572822       178.8556 
 538   0.0000       6.579535       179.0382 
 539   0.0000       6.619925       180.1373 
 540   0.0000       6.656788       181.1404 
 541   0.0000       6.729726       183.1252 
 542   0.0000       6.731939       183.1854 
 543   0.0000       6.741242       183.4385 
 544   0.0000       6.808117       185.2583 
 545   0.0000       6.821046       185.6101 
 546   0.0000       6.846879       186.3130 
 547   0.0000       6.880482       187.2274 
 548   0.0000       6.944693       188.9747 
 549   0.0000       7.006407       190.6540 
 550   0.0000       7.024106       191.1356 
 551   0.0000       7.044644       191.6945 
 552   0.0000       7.102109       193.2582 
 553   0.0000       7.116876       193.6600 
 554   0.0000       7.127118       193.9387 
 555   0.0000       7.368652       200.5112 
 556   0.0000       7.454124       202.8370 
 557   0.0000       7.505396       204.2322 
 558   0.0000      23.127949       629.3435 
 559   0.0000      23.185957       630.9220 
 560   0.0000      23.238597       632.3544 
 561   0.0000      23.287286       633.6793 
 562   0.0000      23.295416       633.9005 
 563   0.0000      23.402742       636.8210 
 564   0.0000      32.722999       890.4381 
 565   0.0000      32.796634       892.4418 
 566   0.0000      32.953912       896.7215 
 567   0.0000      43.836342      1192.8475 
 568   0.0000      43.886476      1194.2117 
 569   0.0000      43.956705      1196.1228 
 570   0.0000      44.006207      1197.4698 

                    ********************************
                    * MULLIKEN POPULATION ANALYSIS *
                    ********************************

-----------------------
MULLIKEN ATOMIC CHARGES
-----------------------
   0 N :   -0.168172
   1 H :    0.203191
   2 C :   -0.128014
   3 C :    0.335145
   4 H :    0.135299
   5 H :    0.135480
   6 O :   -0.301674
   7 C :    0.320968
   8 C :   -0.083786
   9 O :   -0.477276
  10 N :   -0.183853
  11 H :    0.162381
  12 H :    0.154730
  13 H :    0.183603
  14 C :    0.207342
  15 C :   -0.141508
  16 O :   -0.326948
  17 H :    0.171992
  18 H :    0.144944
  19 O :   -0.209110
  20 H :    0.228627
  21 N :   -0.077602
  22 H :    0.239445
  23 H :    0.233252
  24 H :    0.241542
Sum of atomic charges:    1.0000000

--------------------------------
MULLIKEN REDUCED ORBITAL CHARGES
--------------------------------
  0 N s       :     3.427477  s :     3.427477
      pz      :     1.059433  p :     3.681007
      px      :     1.325711
      py      :     1.295862
      dz2     :     0.015312  d :     0.055700
      dxz     :     0.013651
      dyz     :     0.014627
      dx2y2   :     0.004868
      dxy     :     0.007243
      f0      :     0.000713  f :     0.003989
      f+1     :     0.000664
      f-1     :     0.000794
      f+2     :     0.000306
      f-2     :     0.000481
      f+3     :     0.000487
      f-3     :     0.000544
  1 H s       :     0.722684  s :     0.722684
      pz      :     0.015692  p :     0.068657
      px      :     0.026358
      py      :     0.026606
      dz2     :     0.000705  d :     0.005469
      dxz     :     0.000915
      dyz     :     0.000940
      dx2y2   :     0.001813
      dxy     :     0.001095
  2 C s       :     3.184548  s :     3.184548
      pz      :     0.767723  p :     2.826737
      px      :     1.032461
      py      :     1.026553
      dz2     :     0.019178  d :     0.108843
      dxz     :     0.026766
      dyz     :     0.031672
      dx2y2   :     0.017396
      dxy     :     0.013831
      f0      :     0.002103  f :     0.007886
      f+1     :     0.001954
      f-1     :     0.001904
      f+2     :     0.000183
      f-2     :     0.000572
      f+3     :     0.000581
      f-3     :     0.000589
  3 C s       :     3.064589  s :     3.064589
      pz      :     0.687387  p :     2.294969
      px      :     0.801872
      py      :     0.805711
      dz2     :     0.091902  d :     0.281172
      dxz     :     0.063039
      dyz     :     0.065283
      dx2y2   :     0.030305
      dxy     :     0.030644
      f0      :     0.003941  f :     0.024124
      f+1     :     0.005976
      f-1     :     0.005184
      f+2     :     0.003094
      f-2     :     0.002529
      f+3     :     0.001778
      f-3     :     0.001623
  4 H s       :     0.828726  s :     0.828726
      pz      :     0.008289  p :     0.033930
      px      :     0.009613
      py      :     0.016028
      dz2     :     0.000541  d :     0.002044
      dxz     :     0.000145
      dyz     :     0.000394
      dx2y2   :     0.000340
      dxy     :     0.000624
  5 H s       :     0.828664  s :     0.828664
      pz      :     0.006968  p :     0.033818
      px      :     0.016636
      py      :     0.010213
      dz2     :     0.000314  d :     0.002038
      dxz     :     0.000566
      dyz     :     0.000106
      dx2y2   :     0.000392
      dxy     :     0.000660
  6 O s       :     3.813086  s :     3.813086
      pz      :     1.532495  p :     4.453744
      px      :     1.438488
      py      :     1.482762
      dz2     :     0.006327  d :     0.032946
      dxz     :     0.007406
      dyz     :     0.006868
      dx2y2   :     0.007594
      dxy     :     0.004751
      f0      :     0.000256  f :     0.001897
      f+1     :     0.000340
      f-1     :     0.000264
      f+2     :     0.000458
      f-2     :     0.000331
      f+3     :     0.000140
      f-3     :     0.000108
[...]
     53       0.005384  -0.375550  -0.001690  -0.439116  -0.004183   0.000103
     54       0.008814  -0.451973   0.001061   0.378256   0.011381   0.006622
     55       0.011950  -0.605875   0.001593   0.519731   0.010162   0.008670
     56       0.000862  -0.042127   0.000152   0.037415   0.005229   0.002532
     57      -0.000016   0.000005  -0.000006   0.000000   0.000028  -0.000025
     58       0.000026  -0.000008   0.000006   0.000000  -0.000040   0.000028
     59       0.000048  -0.000009   0.000006  -0.000000  -0.000029   0.000018
     60       0.000144  -0.000038   0.000023  -0.000005  -0.000288   0.000360
     61      -0.000176   0.000061  -0.000044  -0.000006   0.000386  -0.000311
     62      -0.000003   0.000013  -0.000014   0.000004  -0.000098   0.000216
     63       0.000597  -0.002331   0.000059   0.000888  -0.057786   0.003402
     64      -0.000195  -0.000539  -0.000006   0.001532  -0.017306  -0.076517
     65      -0.000451   0.000925  -0.000052   0.000326  -0.012891   0.022850
     66      -0.008608   0.027366  -0.001032   0.007412   0.021243  -0.024327
     67       0.003341  -0.010618   0.000449  -0.004698  -0.014070  -0.002309
     68       0.006710  -0.022963   0.000676  -0.014247  -0.026522   0.019448
     69       0.000048  -0.001379  -0.000004  -0.000494   0.155348  -0.328130
     70      -0.000571   0.008274  -0.000136   0.001520  -0.378840   0.757928
     71       0.000254   0.002110   0.000038  -0.001859   0.172765  -0.347622
     72       0.000224   0.005462  -0.000031  -0.012511   0.622595   0.311792
     73       0.000081   0.004737   0.000050  -0.014346   0.638960   0.302002
     74       0.000118  -0.001955  -0.000043   0.007243   0.031672   0.018734
                 72         73         74    
      0       0.045415  -0.000188  -0.000460
      1      -0.048047   0.000181   0.000519
      2       0.032182  -0.000027  -0.000072
      3      -0.611521   0.001913   0.003810
      4       0.643811  -0.001917  -0.004162
      5      -0.452749   0.001311   0.001660
      6       0.000193  -0.000017   0.000202
      7      -0.000165   0.000015  -0.000176
      8       0.000582  -0.000034   0.000278
      9      -0.000653   0.000024  -0.001886
     10       0.000618  -0.000025   0.002077
     11      -0.000801  -0.000016  -0.000185
     12       0.002971   0.000011   0.001113
     13       0.003359  -0.000057   0.000228
     14      -0.006032   0.000127   0.000625
     15      -0.004184   0.000112  -0.000316
     16      -0.003253  -0.000004  -0.000995
     17      -0.004796   0.000052   0.000749
     18       0.000494  -0.000012   0.000639
     19      -0.000506   0.000010  -0.000591
     20       0.000506   0.000005   0.000827
     21      -0.000251   0.000110   0.000199
     22       0.000368  -0.000114  -0.000234
     23       0.000462   0.000112  -0.000001
     24       0.000191  -0.000974   0.000000
     25      -0.000277   0.000133  -0.000007
     26      -0.000055   0.001075  -0.000005
     27      -0.001347  -0.000078  -0.000084
     28       0.001548   0.000109   0.000090
     29      -0.000136   0.000045  -0.000029
     30      -0.000155  -0.032573  -0.000026
     31      -0.000222  -0.065577   0.000034
     32       0.000081   0.001636   0.000019
     33      -0.000266   0.001820   0.000052
     34       0.001912   0.010090   0.000107
     35      -0.000489  -0.001218  -0.000031
     36      -0.001797   0.006047  -0.000085
     37       0.001052  -0.000132  -0.000009
     38      -0.000263  -0.000729  -0.000016
     39       0.001149   0.428582  -0.000148
     40       0.002833   0.899365  -0.000267
     41      -0.000602  -0.043249  -0.000018
     42       0.000175   0.001250   0.000057
     43       0.000011  -0.001305   0.000003
     44      -0.000058   0.000759  -0.000002
     45      -0.000002  -0.000315   0.000001
     46       0.000007  -0.000250   0.000001
     47      -0.000017  -0.000220   0.000002
     48      -0.000059   0.000729  -0.000019
     49      -0.000027   0.000787  -0.000004
     50       0.000039   0.000054   0.000001
     51       0.000023   0.001270  -0.000016
     52      -0.000008  -0.000086   0.000006
     53      -0.000152   0.000117  -0.000024
     54      -0.000072   0.005159  -0.000000
     55      -0.000307   0.004698  -0.000025
     56      -0.000098   0.000703  -0.000018
     57      -0.000104  -0.000019  -0.037096
     58       0.000163   0.000019   0.036370
     59       0.000299   0.000004  -0.034760
     60       0.003395   0.000219   0.599386
     61      -0.003096  -0.000185  -0.591443
     62       0.004650   0.000078   0.535700
     63      -0.001218  -0.000048  -0.000067
     64       0.002154  -0.000283   0.000040
     65      -0.000342   0.000039   0.000011
     66       0.010681  -0.000524   0.000869
     67      -0.004900   0.000364  -0.000472
     68      -0.006461  -0.000451  -0.000351
     69       0.010196  -0.000876   0.000133
     70      -0.023732   0.002444  -0.000330
     71       0.011014  -0.001194   0.000218
     72      -0.002318   0.001428   0.000165
     73      -0.002263   0.001803   0.000080
     74      -0.000168  -0.000131   0.000065


-----------
IR SPECTRUM
-----------

 Mode   freq       eps      Int      T**2         TX        TY        TZ
       cm**-1   L/(mol*cm) km/mol    a.u.
----------------------------------------------------------------------------
  6:     24.41   0.000299    1.51  0.003826  (-0.020789 -0.051152 -0.027877)
  7:     60.43   0.001138    5.75  0.005875  ( 0.048932  0.023279 -0.054208)
  8:     63.39   0.000154    0.78  0.000757  (-0.026453 -0.001526  0.007417)
  9:     69.10   0.000908    4.59  0.004103  (-0.051624 -0.034115  0.016545)
 10:     93.16   0.001216    6.14  0.004072  ( 0.052046  0.005800 -0.036460)
 11:    129.61   0.006512   32.91  0.015681  ( 0.012109  0.100462  0.073766)
 12:    167.92   0.013480   68.12  0.025050  (-0.102024  0.059087  0.105592)
 13:    183.97   0.001126    5.69  0.001909  (-0.026768 -0.034448  0.002485)
 14:    266.27   0.004754   24.03  0.005572  ( 0.069936 -0.009273  0.024388)
 15:    268.77   0.010008   50.57  0.011619  ( 0.045576 -0.049278  0.084344)
 16:    303.29   0.001337    6.76  0.001375  ( 0.002670 -0.018772 -0.031874)
 17:    308.74   0.002516   12.71  0.002543  (-0.034516  0.029728  0.021631)
 18:    350.67   0.000361    1.82  0.000321  (-0.007533  0.015997 -0.002920)
 19:    403.68   0.007916   40.00  0.006119  ( 0.062165 -0.042427 -0.021325)
 20:    433.59   0.001523    7.70  0.001096  ( 0.020441 -0.023602 -0.011002)
 21:    450.46   0.018165   91.80  0.012584  ( 0.082754  0.074986 -0.010636)
 22:    539.88   0.001714    8.66  0.000991  ( 0.012463 -0.022422 -0.018242)
 23:    558.19   0.005124   25.90  0.002865  ( 0.040806  0.031261 -0.014916)
 24:    585.62   0.006597   33.34  0.003515  ( 0.035902  0.025754  0.039538)
 25:    593.78   0.005184   26.20  0.002724  ( 0.030846  0.018602  0.037773)
 26:    652.79   0.004742   23.97  0.002267  (-0.010103  0.029604  0.035897)
 27:    676.02   0.008281   41.85  0.003823  ( 0.000435  0.019863 -0.058549)
 28:    693.48   0.013149   66.45  0.005917  (-0.061385 -0.032657 -0.032899)
 29:    736.81   0.003246   16.41  0.001375  ( 0.027644 -0.015042  0.019610)
 30:    787.74   0.002977   15.04  0.001179  (-0.001728 -0.000983 -0.034283)
 31:    878.41   0.001495    7.55  0.000531  (-0.009417  0.021028 -0.000387)
 32:    888.87   0.002010   10.16  0.000706  ( 0.002218  0.003343 -0.026259)
 33:    913.06   0.002582   13.05  0.000883  ( 0.012829 -0.000376 -0.026794)
 34:    980.45   0.000732    3.70  0.000233  (-0.008160 -0.003956 -0.012272)
 35:    994.70   0.008812   44.53  0.002764  (-0.038098  0.030259  0.019934)
 36:   1022.60   0.000364    1.84  0.000111  ( 0.007115  0.007692  0.001159)
 37:   1056.92   0.001087    5.49  0.000321  ( 0.017374 -0.004068  0.001586)
 38:   1076.62   0.002696   13.62  0.000781  ( 0.026879  0.006727 -0.003689)
 39:   1135.44   0.002749   13.89  0.000756  ( 0.003933 -0.025384 -0.009788)
 40:   1142.48   0.010725   54.20  0.002930  (-0.036126  0.038416  0.012195)
 41:   1162.69   0.002589   13.09  0.000695  (-0.017546  0.007590  0.018152)
 42:   1203.68   0.001979   10.00  0.000513  (-0.002271  0.000543 -0.022532)
 43:   1261.97   0.000323    1.63  0.000080  ( 0.007926  0.004110 -0.000335)
 44:   1271.23   0.008123   41.05  0.001994  (-0.008984  0.010650  0.042425)
 45:   1281.67   0.001831    9.25  0.000446  (-0.009160  0.013701 -0.013200)
 46:   1302.69   0.008103   40.95  0.001941  ( 0.032877 -0.016421  0.024300)
 47:   1314.31   0.059105  298.69  0.014034  ( 0.030851 -0.048037 -0.103800)
 48:   1333.94   0.009363   47.32  0.002190  (-0.029051  0.010620  0.035125)
 49:   1381.85   0.022971  116.09  0.005188  ( 0.031735 -0.043633 -0.047713)
 50:   1420.88   0.001462    7.39  0.000321  (-0.004598  0.001782 -0.017229)
 51:   1434.89   0.034094  172.29  0.007415  (-0.013897  0.021742  0.082152)
 52:   1474.98   0.003113   15.73  0.000659  ( 0.001184 -0.019970  0.016077)
 53:   1502.20   0.004648   23.49  0.000966  (-0.022781  0.017690 -0.011559)
 54:   1504.95   0.003145   15.90  0.000652  ( 0.006574 -0.022669 -0.009752)
 55:   1541.40   0.027352  138.23  0.005538  ( 0.053154 -0.024813  0.045788)
 56:   1571.32   0.040011  202.20  0.007946  (-0.087280  0.017198  0.005702)
 57:   1601.11   0.042553  215.04  0.008294  ( 0.015785 -0.026733 -0.085615)
 58:   1625.55   0.029220  147.67  0.005609  ( 0.018733 -0.068724 -0.023143)
 59:   1681.92   0.039957  201.93  0.007414  ( 0.061899 -0.058545 -0.012436)
 60:   1724.61   0.073156  369.70  0.013237  (-0.069424  0.087785  0.026675)
 61:   1819.18   0.046184  233.40  0.007922  (-0.075007 -0.045893  0.013795)
 62:   1884.12   0.046045  232.69  0.007626  (-0.045709  0.043784 -0.060167)
 63:   3003.45   0.180171  910.51  0.018720  ( 0.103516 -0.069246 -0.056653)
 64:   3076.28   0.002635   13.31  0.000267  ( 0.000846 -0.004383 -0.015727)
 65:   3117.73   0.000363    1.83  0.000036  ( 0.004844  0.003456 -0.000942)
 66:   3120.33   0.002123   10.73  0.000212  (-0.010271  0.003766  0.009625)
 67:   3132.80   0.000693    3.50  0.000069  ( 0.008214  0.000390 -0.001180)
 68:   3173.89   0.000213    1.07  0.000021  (-0.002592 -0.003116  0.002115)
 69:   3203.62   0.000144    0.73  0.000014  ( 0.001183 -0.002534 -0.002485)
 70:   3476.46   0.016920   85.51  0.001519  ( 0.038362  0.003243  0.006053)
 71:   3557.07   0.022056  111.46  0.001935  (-0.007343  0.042029 -0.010707)
 72:   3571.96   0.032621  164.85  0.002850  (-0.034590  0.039688  0.008849)
 73:   3661.91   0.009087   45.92  0.000774  ( 0.018178  0.020877  0.002852)
 74:   3853.82   0.017827   90.09  0.001444  ( 0.014419 -0.011638  0.033168)

* The epsilon (eps) is given for a Dirac delta lineshape.
** The dipole moment derivative (T) already includes vibrational overlap.

The first frequency considered to be a vibration is 6
The total number of vibrations considered is 69


--------------------------
THERMOCHEMISTRY AT 298.15K
--------------------------

Temperature         ... 298.15 K
Pressure            ... 1.00 atm
Total Mass          ... 190.18 AMU

Throughout the following assumptions are being made:
  (1) The electronic state is orbitally nondegenerate
  (2) There are no thermally accessible electronically excited states
  (3) Hindered rotations indicated by low frequency modes are not
      treated as such but are treated as vibrations and this may
      cause some error
  (4) All equations used are the standard statistical mechanics
      equations for an ideal gas
  (5) All vibrations are strictly harmonic

freq.      24.41  E(vib)   ...       0.56 
freq.      60.43  E(vib)   ...       0.51 
freq.      63.39  E(vib)   ...       0.51 
freq.      69.10  E(vib)   ...       0.50 
freq.      93.16  E(vib)   ...       0.47 
freq.     129.61  E(vib)   ...       0.43 
freq.     167.92  E(vib)   ...       0.38 
freq.     183.97  E(vib)   ...       0.37 
freq.     266.27  E(vib)   ...       0.29 
freq.     268.77  E(vib)   ...       0.29 
freq.     303.29  E(vib)   ...       0.26 
freq.     308.74  E(vib)   ...       0.26 
freq.     350.67  E(vib)   ...       0.23 
freq.     403.68  E(vib)   ...       0.19 
freq.     433.59  E(vib)   ...       0.17 
freq.     450.46  E(vib)   ...       0.17 
freq.     539.88  E(vib)   ...       0.12 
freq.     558.19  E(vib)   ...       0.12 
freq.     585.62  E(vib)   ...       0.11 
freq.     593.78  E(vib)   ...       0.10 
freq.     652.79  E(vib)   ...       0.08 
freq.     676.02  E(vib)   ...       0.08 
freq.     693.48  E(vib)   ...       0.07 
freq.     736.81  E(vib)   ...       0.06 
freq.     787.74  E(vib)   ...       0.05 
freq.     878.41  E(vib)   ...       0.04 
freq.     888.87  E(vib)   ...       0.04 
freq.     913.06  E(vib)   ...       0.03 
freq.     980.45  E(vib)   ...       0.02 
freq.     994.70  E(vib)   ...       0.02 
freq.    1022.60  E(vib)   ...       0.02 
freq.    1056.92  E(vib)   ...       0.02 
freq.    1076.62  E(vib)   ...       0.02 
freq.    1135.44  E(vib)   ...       0.01 
freq.    1142.48  E(vib)   ...       0.01 
freq.    1162.69  E(vib)   ...       0.01 
freq.    1203.68  E(vib)   ...       0.01 
freq.    1261.97  E(vib)   ...       0.01 
freq.    1271.23  E(vib)   ...       0.01 
freq.    1281.67  E(vib)   ...       0.01 
freq.    1302.69  E(vib)   ...       0.01 
freq.    1314.31  E(vib)   ...       0.01 
freq.    1333.94  E(vib)   ...       0.01 
freq.    1381.85  E(vib)   ...       0.01 
freq.    1420.88  E(vib)   ...       0.00 
freq.    1434.89  E(vib)   ...       0.00 
freq.    1474.98  E(vib)   ...       0.00 
freq.    1502.20  E(vib)   ...       0.00 
freq.    1504.95  E(vib)   ...       0.00 
freq.    1541.40  E(vib)   ...       0.00 
freq.    1571.32  E(vib)   ...       0.00 
freq.    1601.11  E(vib)   ...       0.00 
freq.    1625.55  E(vib)   ...       0.00 
freq.    1681.92  E(vib)   ...       0.00 
freq.    1724.61  E(vib)   ...       0.00 
freq.    1819.18  E(vib)   ...       0.00 
freq.    1884.12  E(vib)   ...       0.00 
freq.    3003.45  E(vib)   ...       0.00 
freq.    3076.28  E(vib)   ...       0.00 
freq.    3117.73  E(vib)   ...       0.00 
freq.    3120.33  E(vib)   ...       0.00 
freq.    3132.80  E(vib)   ...       0.00 
freq.    3173.89  E(vib)   ...       0.00 
freq.    3203.62  E(vib)   ...       0.00 
freq.    3476.46  E(vib)   ...       0.00 
freq.    3557.07  E(vib)   ...       0.00 
freq.    3571.96  E(vib)   ...       0.00 
freq.    3661.91  E(vib)   ...       0.00 
freq.    3853.82  E(vib)   ...       0.00 

------------
INNER ENERGY
------------

The inner energy is: U= E(el) + E(ZPE) + E(vib) + E(rot) + E(trans)
    E(el)   - is the total energy from the electronic structure calculation
              = E(kin-el) + E(nuc-el) + E(el-el) + E(nuc-nuc)
    E(ZPE)  - the the zero temperature vibrational energy from the frequency calculation
    E(vib)  - the the finite temperature correction to E(ZPE) due to population
              of excited vibrational states
    E(rot)  - is the rotational thermal energy
    E(trans)- is the translational thermal energy

Summary of contributions to the inner energy U:
Electronic energy                ...   -701.33889815 Eh
Zero point energy                ...      0.20900314 Eh     131.15 kcal/mol
Thermal vibrational correction   ...      0.01069310 Eh       6.71 kcal/mol
Thermal rotational correction    ...      0.00141627 Eh       0.89 kcal/mol
Thermal translational correction ...      0.00141627 Eh       0.89 kcal/mol
-----------------------------------------------------------------------
Total thermal energy                   -701.11636937 Eh


Summary of corrections to the electronic energy:
(perhaps to be used in another calculation)
Total thermal correction                  0.01352564 Eh       8.49 kcal/mol
Non-thermal (ZPE) correction              0.20900314 Eh     131.15 kcal/mol
-----------------------------------------------------------------------
Total correction                          0.22252879 Eh     139.64 kcal/mol


--------
ENTHALPY
--------

The enthalpy is H = U + kB*T
                kB is Boltzmann's constant
Total free energy                 ...   -701.11636937 Eh 
Thermal Enthalpy correction       ...      0.00094421 Eh       0.59 kcal/mol
-----------------------------------------------------------------------
Total Enthalpy                    ...   -701.11542516 Eh


Note: Only C1 symmetry has been detected, increase convergence thresholds 
      if your molecule has a higher symmetry. Symmetry factor of 1.0 is   
      used for the rotational entropy correction. 
 

Note: Rotational entropy computed according to Herzberg 
Infrared and Raman Spectra, Chapter V,1, Van Nostrand Reinhold, 1945 
Point Group:  C1, Symmetry Number:   1  
Rotational constants in cm-1:     0.065979     0.010736     0.009869 

Vibrational entropy computed according to the QRRHO of S. Grimme
Chem.Eur.J. 2012 18 9955


-------
ENTROPY
-------

The entropy contributions are T*S = T*(S(el)+S(vib)+S(rot)+S(trans))
     S(el)   - electronic entropy
     S(vib)  - vibrational entropy
     S(rot)  - rotational entropy
     S(trans)- translational entropy
The entropies will be listed as multiplied by the temperature to get
units of energy

Electronic entropy                ...      0.00000000 Eh      0.00 kcal/mol
Vibrational entropy               ...      0.01903480 Eh     11.94 kcal/mol
Rotational entropy                ...      0.01511496 Eh      9.48 kcal/mol
Translational entropy             ...      0.01978162 Eh     12.41 kcal/mol
-----------------------------------------------------------------------
Final entropy term                ...      0.05393138 Eh     33.84 kcal/mol

In case the symmetry of your molecule has not been determined correctly
or in case you have a reason to use a different symmetry number we print 
out the resulting rotational entropy values for sn=1,12 :
 --------------------------------------------------------
|  sn= 1 | S(rot)=       0.01511496 Eh      9.48 kcal/mol|
|  sn= 2 | S(rot)=       0.01446050 Eh      9.07 kcal/mol|
|  sn= 3 | S(rot)=       0.01407767 Eh      8.83 kcal/mol|
|  sn= 4 | S(rot)=       0.01380605 Eh      8.66 kcal/mol|
|  sn= 5 | S(rot)=       0.01359536 Eh      8.53 kcal/mol|
|  sn= 6 | S(rot)=       0.01342321 Eh      8.42 kcal/mol|
|  sn= 7 | S(rot)=       0.01327767 Eh      8.33 kcal/mol|
|  sn= 8 | S(rot)=       0.01315159 Eh      8.25 kcal/mol|
|  sn= 9 | S(rot)=       0.01304038 Eh      8.18 kcal/mol|
|  sn=10 | S(rot)=       0.01294090 Eh      8.12 kcal/mol|
|  sn=11 | S(rot)=       0.01285091 Eh      8.06 kcal/mol|
|  sn=12 | S(rot)=       0.01276876 Eh      8.01 kcal/mol|
 --------------------------------------------------------


-------------------
GIBBS FREE ENERGY
-------------------

The Gibbs free energy is G = H - T*S

Total enthalpy                    ...   -701.11542516 Eh 
Total entropy correction          ...     -0.05393138 Eh    -33.84 kcal/mol
-----------------------------------------------------------------------
Final Gibbs free energy         ...   -701.16935653 Eh

For completeness - the Gibbs free energy minus the electronic energy
G-E(el)                           ...      0.16954162 Eh    106.39 kcal/mol


Timings for individual modules:

Sum of individual times         ...     8044.468 sec (= 134.074 min)
GTO integral calculation        ...       26.753 sec (=   0.446 min)   0.3 %
SCF iterations                  ...     2574.953 sec (=  42.916 min)  32.0 %
SCF Gradient evaluation         ...      520.055 sec (=   8.668 min)   6.5 %
Geometry relaxation             ...        1.608 sec (=   0.027 min)   0.0 %
Analytical frequency calculation...     4426.797 sec (=  73.780 min)  55.0 %
CHELPG charge generation        ...      494.302 sec (=   8.238 min)   6.1 %
                             ****ORCA TERMINATED NORMALLY****
TOTAL RUN TIME: 0 days 2 hours 14 minutes 38 seconds 417 msec
