
Lmod is automatically replacing "intel/2020.1.217" with "gcc/10.3.0".


Due to MODULEPATH changes, the following have been reloaded:
  1) blis/0.8.1     2) flexiblas/3.0.4

The following have been reloaded with a version change:
  1) gcccore/.9.3.0 => gcccore/.10.3.0        3) openmpi/4.0.3 => openmpi/4.1.1
  2) libfabric/1.10.1 => libfabric/1.12.1     4) ucx/1.8.0 => ucx/1.9.0

To execute ORCA, run: 
   ${EBROOTORCA}/orca orca.inp > orca.out

                                 *****************
                                 * O   R   C   A *
                                 *****************

                                            #,                                       
                                            ###                                      
                                            ####                                     
                                            #####                                    
                                            ######                                   
                                           ########,                                 
                                     ,,################,,,,,                         
                               ,,#################################,,                 
                          ,,##########################################,,             
                       ,#########################################, ''#####,          
                    ,#############################################,,   '####,        
                  ,##################################################,,,,####,       
                ,###########''''           ''''###############################       
              ,#####''   ,,,,##########,,,,          '''####'''          '####       
            ,##' ,,,,###########################,,,                        '##       
           ' ,,###''''                  '''############,,,                           
         ,,##''                                '''############,,,,        ,,,,,,###''
      ,#''                                            '''#######################'''  
     '                                                          ''''####''''         
             ,#######,   #######,   ,#######,      ##                                
            ,#'     '#,  ##    ##  ,#'     '#,    #''#        ######   ,####,        
            ##       ##  ##   ,#'  ##            #'  '#       #        #'  '#        
            ##       ##  #######   ##           ,######,      #####,   #    #        
            '#,     ,#'  ##    ##  '#,     ,#' ,#      #,         ##   #,  ,#        
             '#######'   ##     ##  '#######'  #'      '#     #####' # '####'        



                  #######################################################
                  #                        -***-                        #
                  #          Department of theory and spectroscopy      #
                  #    Directorship and core code : Frank Neese         #
                  #        Max Planck Institute fuer Kohlenforschung    #
                  #                Kaiser Wilhelm Platz 1               #
                  #                 D-45470 Muelheim/Ruhr               #
                  #                      Germany                        #
                  #                                                     #
                  #                  All rights reserved                #
                  #                        -***-                        #
                  #######################################################


                         Program Version 5.0.2 -  RELEASE  -


 With contributions from (in alphabetic order):
   Daniel Aravena         : Magnetic Suceptibility
   Michael Atanasov       : Ab Initio Ligand Field Theory (pilot matlab implementation)
   Alexander A. Auer      : GIAO ZORA, VPT2 properties, NMR spectrum
   Ute Becker             : Parallelization
   Giovanni Bistoni       : ED, misc. LED, open-shell LED, HFLD
   Martin Brehm           : Molecular dynamics
   Dmytro Bykov           : SCF Hessian
   Vijay G. Chilkuri      : MRCI spin determinant printing, contributions to CSF-ICE
   Dipayan Datta          : RHF DLPNO-CCSD density
   Achintya Kumar Dutta   : EOM-CC, STEOM-CC
   Dmitry Ganyushin       : Spin-Orbit,Spin-Spin,Magnetic field MRCI
   Miquel Garcia          : C-PCM and meta-GGA Hessian, CC/C-PCM, Gaussian charge scheme
   Yang Guo               : DLPNO-NEVPT2, F12-NEVPT2, CIM, IAO-localization
   Andreas Hansen         : Spin unrestricted coupled pair/coupled cluster methods
   Benjamin Helmich-Paris : MC-RPA, TRAH-SCF, COSX integrals
   Lee Huntington         : MR-EOM, pCC
   Robert Izsak           : Overlap fitted RIJCOSX, COSX-SCS-MP3, EOM
   Marcus Kettner         : VPT2
   Christian Kollmar      : KDIIS, OOCD, Brueckner-CCSD(T), CCSD density, CASPT2, CASPT2-K
   Simone Kossmann        : Meta GGA functionals, TD-DFT gradient, OOMP2, MP2 Hessian
   Martin Krupicka        : Initial AUTO-CI
   Lucas Lang             : DCDCAS
   Marvin Lechner         : AUTO-CI (C++ implementation), FIC-MRCC
   Dagmar Lenk            : GEPOL surface, SMD
   Dimitrios Liakos       : Extrapolation schemes; Compound Job, initial MDCI parallelization
   Dimitrios Manganas     : Further ROCIS development; embedding schemes
   Dimitrios Pantazis     : SARC Basis sets
   Anastasios Papadopoulos: AUTO-CI, single reference methods and gradients
   Taras Petrenko         : DFT Hessian,TD-DFT gradient, ASA, ECA, R-Raman, ABS, FL, XAS/XES, NRVS
   Peter Pinski           : DLPNO-MP2, DLPNO-MP2 Gradient
   Christoph Reimann      : Effective Core Potentials
   Marius Retegan         : Local ZFS, SOC
   Christoph Riplinger    : Optimizer, TS searches, QM/MM, DLPNO-CCSD(T), (RO)-DLPNO pert. Triples
   Tobias Risthaus        : Range-separated hybrids, TD-DFT gradient, RPA, STAB
   Michael Roemelt        : Original ROCIS implementation
   Masaaki Saitow         : Open-shell DLPNO-CCSD energy and density
   Barbara Sandhoefer     : DKH picture change effects
   Avijit Sen             : IP-ROCIS
   Kantharuban Sivalingam : CASSCF convergence, NEVPT2, FIC-MRCI
   Bernardo de Souza      : ESD, SOC TD-DFT
   Georgi Stoychev        : AutoAux, RI-MP2 NMR, DLPNO-MP2 response
   Willem Van den Heuvel  : Paramagnetic NMR
   Boris Wezisla          : Elementary symmetry handling
   Frank Wennmohs         : Technical directorship


 We gratefully acknowledge several colleagues who have allowed us to
 interface, adapt or use parts of their codes:
   Stefan Grimme, W. Hujo, H. Kruse, P. Pracht,  : VdW corrections, initial TS optimization,
                  C. Bannwarth, S. Ehlert          DFT functionals, gCP, sTDA/sTD-DF
   Ed Valeev, F. Pavosevic, A. Kumar             : LibInt (2-el integral package), F12 methods
   Garnet Chan, S. Sharma, J. Yang, R. Olivares  : DMRG
   Ulf Ekstrom                                   : XCFun DFT Library
   Mihaly Kallay                                 : mrcc  (arbitrary order and MRCC methods)
   Jiri Pittner, Ondrej Demel                    : Mk-CCSD
   Frank Weinhold                                : gennbo (NPA and NBO analysis)
   Christopher J. Cramer and Donald G. Truhlar   : smd solvation model
   Lars Goerigk                                  : TD-DFT with DH, B97 family of functionals
   V. Asgeirsson, H. Jonsson                     : NEB implementation
   FAccTs GmbH                                   : IRC, NEB, NEB-TS, DLPNO-Multilevel, CI-OPT
                                                   MM, QMMM, 2- and 3-layer-ONIOM, Crystal-QMMM,
                                                   LR-CPCM, SF, NACMEs, symmetry and pop. for TD-DFT,
                                                   nearIR, NL-DFT gradient (VV10), updates on ESD,
                                                   ML-optimized integration grids
   S Lehtola, MJT Oliveira, MAL Marques          : LibXC Library
   Liviu Ungur et al                             : ANISO software


 Your calculation uses the libint2 library for the computation of 2-el integrals
 For citations please refer to: http://libint.valeyev.net

 Your ORCA version has been built with support for libXC version: 5.1.0
 For citations please refer to: https://tddft.org/programs/libxc/

 This ORCA versions uses:
   CBLAS   interface :  Fast vector & matrix operations
   LAPACKE interface :  Fast linear algebra routines
   SCALAPACK package :  Parallel linear algebra routines
   Shared memory     :  Shared parallel matrices
   BLAS/LAPACK       :  OpenBLAS 0.3.15  USE64BITINT DYNAMIC_ARCH NO_AFFINITY Zen SINGLE_THREADED
        Core in use  :  Zen
   Copyright (c) 2011-2014, The OpenBLAS Project


Your calculation utilizes the atom-pairwise dispersion correction
with the Becke-Johnson damping scheme (D3BJ)
Cite in your paper:
S.Grimme, S.Ehrlich, L.Goerigk, J Comput Chem, (2011), 32, 1456–1465 
S.Grimme, J.Antony, S.Ehrlich and H.Krieg, J.Chem.Phys., 132, (2010), 154104 
   

================================================================================

----- Orbital basis set information -----
Your calculation utilizes the basis: def2-TZVPP
   F. Weigend and R. Ahlrichs, Phys. Chem. Chem. Phys. 7, 3297 (2005).

----- AuxJ basis set information -----
Your calculation utilizes the auxiliary basis: def2/J
   F. Weigend, Phys. Chem. Chem. Phys. 8, 1057 (2006).

================================================================================
                                        WARNINGS
                       Please study these warnings very carefully!
================================================================================


WARNING: Geometry Optimization
  ===> : Switching off AutoStart
         For restart on a previous wavefunction, please use MOREAD

INFO   : the flag for use of the SHARK integral package has been found!

================================================================================
                                       INPUT FILE
================================================================================
NAME = GGG-H_tt_024_OptFreq.inp
|  1> # GGG-H_tt_024 (old 126)
|  2> ! wB97X-D3BJ Opt Freq def2-TZVPP def2/J RIJCOSX VeryTightSCF
|  3> ! PAL8 defgrid3 VeryTightOpt
|  4> 
|  5> %maxcore 4096
|  6> 
|  7> %geom
|  8>   MaxIter 300
|  9>   # MaxStep 0.1
| 10>   Calc_Hess true
| 11>   Recalc_Hess 10
| 12> end
| 13> 
| 14> %chelpg
| 15>   grid 0.1
| 16>   rmax 3.0
| 17> end
| 18> 
| 19> * xyz 1 1 
| 20>  N   -1.036189   +1.940859   -2.928432
| 21>  H   -1.754664   +2.516262   -2.488524
| 22>  C   -0.964130   +1.943591   -4.382935
| 23>  C   -2.132473   +1.241240   -5.081908
| 24>  H   -0.920763   +2.980963   -4.755604
| 25>  H   -0.035717   +1.435793   -4.682933
| 26>  O   -2.178754   +1.068613   -6.275083
| 27>  C   -0.372067   +1.054693   -2.168114
| 28>  C   -0.638974   +1.132751   -0.641963
| 29>  O   +0.430772   +0.229409   -2.652620
| 30>  N   +0.000000   +0.000000   +0.000000
| 31>  H   -1.719991   +1.136322   -0.428788
| 32>  H   -0.198571   +2.062694   -0.246222
| 33>  H   -0.468126   -0.899205   -0.109971
| 34>  C   +1.368452   +0.000000   +0.000000
| 35>  C   +2.048903   -1.347581   -0.290108
| 36>  O   +2.060582   +1.010223   +0.000000
| 37>  H   +1.376721   -2.217959   -0.315506
| 38>  H   +2.902634   -1.536335   +0.376577
| 39>  O   -3.096350   +0.864287   -4.205620
| 40>  H   -3.811734   +0.447860   -4.734591
| 41>  N   +2.554706   -1.099624   -1.694785
| 42>  H   +1.731070   -0.668924   -2.242514
| 43>  H   +3.279948   -0.362625   -1.653936
| 44>  H   +2.940342   -1.934810   -2.158838
| 45> *
| 46> 
| 47>                          ****END OF INPUT****
================================================================================

                       *****************************
                       * Geometry Optimization Run *
                       *****************************

Geometry optimization settings:
Update method            Update   .... BFGS
Choice of coordinates    CoordSys .... Z-matrix Internals
Initial Hessian          InHess   .... Almoef's Model

Convergence Tolerances:
Energy Change            TolE     ....  2.0000e-07 Eh
Max. Gradient            TolMAXG  ....  3.0000e-05 Eh/bohr
RMS Gradient             TolRMSG  ....  8.0000e-06 Eh/bohr
Max. Displacement        TolMAXD  ....  2.0000e-04 bohr
RMS Displacement         TolRMSD  ....  1.0000e-04 bohr
Strict Convergence                ....  False
------------------------------------------------------------------------------
                        ORCA OPTIMIZATION COORDINATE SETUP
------------------------------------------------------------------------------

The optimization will be done in new redundant internal coordinates
Making redundant internal coordinates   ...  (new redundants) done
Evaluating the initial hessian          ...  (Is done on the fly) done
Evaluating the coordinates              ...  done
Calculating the B-matrix                .... done
Calculating the G-matrix                .... done
Diagonalizing the G-matrix              .... done
Small eigenvalue found = 4.581e-03
Small eigenvalue found = 1.436e-02
Small eigenvalue found = 1.670e-02
Small eigenvalue found = 2.894e-02
The first mode is                       ....   44
The number of degrees of freedom        ....   69

    -----------------------------------------------------------------
                    Redundant Internal Coordinates


    -----------------------------------------------------------------
         Definition                    Initial Value    d2E/dq (diagonal element)
    -----------------------------------------------------------------
      1. B(H   1,N   0)                  1.0202         0.000000   
      2. B(C   2,N   0)                  1.4563         0.000000   
      3. B(C   3,C   2)                  1.5320         0.000000   
      4. B(H   4,C   2)                  1.1031         0.000000   
      5. B(H   5,C   2)                  1.0999         0.000000   
      6. B(O   6,C   3)                  1.2065         0.000000   
      7. B(C   7,N   0)                  1.3433         0.000000   
      8. B(C   8,C   7)                  1.5513         0.000000   
      9. B(O   9,C   7)                  1.2492         0.000000   
     10. B(N  10,C   8)                  1.4504         0.000000   
     11. B(H  11,C   8)                  1.1018         0.000000   
     12. B(H  12,C   8)                  1.1024         0.000000   
     13. B(H  13,N  10)                  1.0197         0.000000   
     14. B(C  14,N  10)                  1.3685         0.000000   
     15. B(C  15,C  14)                  1.5373         0.000000   
     16. B(O  16,C  14)                  1.2246         0.000000   
     17. B(H  17,C  15)                  1.1000         0.000000   
     18. B(H  18,C  15)                  1.0995         0.000000   
     19. B(O  19,C   3)                  1.3561         0.000000   
     20. B(H  20,O  19)                  0.9823         0.000000   
     21. B(N  21,C  15)                  1.5134         0.000000   
     22. B(H  22,N  21)                  1.0788         0.000000   
     23. B(H  23,N  21)                  1.0348         0.000000   
     24. B(H  24,N  21)                  1.0303         0.000000   
     25. A(H   1,N   0,C   2)          117.6751         0.000000   
     26. A(C   2,N   0,C   7)          122.8261         0.000000   
     27. A(H   1,N   0,C   7)          118.4370         0.000000   
     28. A(C   3,C   2,H   5)          107.9165         0.000000   
     29. A(C   3,C   2,H   4)          107.8773         0.000000   
     30. A(N   0,C   2,H   4)          109.9453         0.000000   
     31. A(N   0,C   2,C   3)          114.6520         0.000000   
     32. A(N   0,C   2,H   5)          108.2590         0.000000   
     33. A(H   4,C   2,H   5)          107.9884         0.000000   
     34. A(O   6,C   3,O  19)          124.8906         0.000000   
     35. A(C   2,C   3,O  19)          112.0043         0.000000   
     36. A(C   2,C   3,O   6)          123.0986         0.000000   
     37. A(C   8,C   7,O   9)          121.6958         0.000000   
     38. A(N   0,C   7,O   9)          122.2802         0.000000   
     39. A(N   0,C   7,C   8)          116.0135         0.000000   
     40. A(C   7,C   8,H  11)          111.0575         0.000000   
     41. A(C   7,C   8,N  10)          108.6843         0.000000   
     42. A(H  11,C   8,H  12)          108.6477         0.000000   
     43. A(N  10,C   8,H  12)          108.9007         0.000000   
     44. A(C   7,C   8,H  12)          109.0788         0.000000   
     45. A(N  10,C   8,H  11)          110.4343         0.000000   
     46. A(H  13,N  10,C  14)          117.3276         0.000000   
     47. A(C   8,N  10,C  14)          116.1399         0.000000   
     48. A(C   8,N  10,H  13)          116.0230         0.000000   
     49. A(C  15,C  14,O  16)          118.2285         0.000000   
     50. A(N  10,C  14,O  16)          124.4161         0.000000   
     51. A(N  10,C  14,C  15)          116.2725         0.000000   
     52. A(H  17,C  15,H  18)          110.6485         0.000000   
     53. A(C  14,C  15,H  18)          112.3182         0.000000   
     54. A(C  14,C  15,H  17)          115.3084         0.000000   
     55. A(H  18,C  15,N  21)          109.3537         0.000000   
     56. A(H  17,C  15,N  21)          108.2059         0.000000   
     57. A(C  14,C  15,N  21)          100.3389         0.000000   
     58. A(C   3,O  19,H  20)          106.7078         0.000000   
     59. A(H  23,N  21,H  24)          109.4376         0.000000   
     60. A(H  22,N  21,H  24)          112.3765         0.000000   
     61. A(C  15,N  21,H  24)          114.2243         0.000000   
     62. A(H  22,N  21,H  23)          105.7102         0.000000   
     63. A(C  15,N  21,H  23)          108.3175         0.000000   
     64. A(C  15,N  21,H  22)          106.3485         0.000000   
     65. D(H   4,C   2,N   0,C   7)   -140.2396         0.000000   
     66. D(H   5,C   2,N   0,C   7)    -22.4857         0.000000   
     67. D(H   5,C   2,N   0,H   1)    169.4964         0.000000   
     68. D(H   4,C   2,N   0,H   1)     51.7425         0.000000   
     69. D(C   3,C   2,N   0,H   1)    -69.9836         0.000000   
     70. D(C   3,C   2,N   0,C   7)     98.0343         0.000000   
     71. D(O   6,C   3,C   2,H   4)     62.6998         0.000000   
     72. D(O  19,C   3,C   2,H   5)    127.1365         0.000000   
     73. D(O  19,C   3,C   2,H   4)   -116.4200         0.000000   
     74. D(O   6,C   3,C   2,H   5)    -53.7437         0.000000   
     75. D(O  19,C   3,C   2,N   0)      6.4275         0.000000   
     76. D(O   6,C   3,C   2,N   0)   -174.4528         0.000000   
     77. D(O   9,C   7,N   0,H   1)    173.1831         0.000000   
     78. D(C   8,C   7,N   0,C   2)   -175.9071         0.000000   
     79. D(C   8,C   7,N   0,H   1)     -7.9758         0.000000   
     80. D(O   9,C   7,N   0,C   2)      5.2518         0.000000   
     81. D(H  12,C   8,C   7,O   9)    109.4719         0.000000   
     82. D(H  12,C   8,C   7,N   0)    -69.3766         0.000000   
     83. D(H  11,C   8,C   7,O   9)   -130.8117         0.000000   
     84. D(N  10,C   8,C   7,O   9)     -9.1345         0.000000   
     85. D(N  10,C   8,C   7,N   0)    172.0170         0.000000   
     86. D(H  11,C   8,C   7,N   0)     50.3398         0.000000   
     87. D(C  14,N  10,C   8,H  12)    -50.3283         0.000000   
     88. D(C  14,N  10,C   8,H  11)   -169.5528         0.000000   
     89. D(C  14,N  10,C   8,C   7)     68.3902         0.000000   
     90. D(H  13,N  10,C   8,H  12)    165.7047         0.000000   
     91. D(H  13,N  10,C   8,H  11)     46.4801         0.000000   
     92. D(H  13,N  10,C   8,C   7)    -75.5768         0.000000   
     93. D(O  16,C  14,N  10,C   8)     29.5415         0.000000   
     94. D(C  15,C  14,N  10,H  13)      5.1767         0.000000   
     95. D(C  15,C  14,N  10,C   8)   -138.3093         0.000000   
     96. D(O  16,C  14,N  10,H  13)    173.0275         0.000000   
     97. D(N  21,C  15,C  14,O  16)    -61.8484         0.000000   
     98. D(N  21,C  15,C  14,N  10)    106.7868         0.000000   
     99. D(H  18,C  15,C  14,O  16)     54.1939         0.000000   
    100. D(H  18,C  15,C  14,N  10)   -137.1709         0.000000   
    101. D(H  17,C  15,C  14,O  16)   -177.7977         0.000000   
    102. D(H  17,C  15,C  14,N  10)     -9.1625         0.000000   
    103. D(H  20,O  19,C   3,O   6)     -0.5878         0.000000   
    104. D(H  20,O  19,C   3,C   2)    178.5132         0.000000   
    105. D(H  24,N  21,C  15,H  18)     70.1151         0.000000   
    106. D(H  24,N  21,C  15,H  17)    -50.4804         0.000000   
    107. D(H  24,N  21,C  15,C  14)   -171.6416         0.000000   
    108. D(H  23,N  21,C  15,H  18)    -52.1164         0.000000   
    109. D(H  23,N  21,C  15,H  17)   -172.7119         0.000000   
    110. D(H  23,N  21,C  15,C  14)     66.1270         0.000000   
    111. D(H  22,N  21,C  15,H  18)   -165.3421         0.000000   
    112. D(H  22,N  21,C  15,H  17)     74.0623         0.000000   
    113. D(H  22,N  21,C  15,C  14)    -47.0988         0.000000   
    -----------------------------------------------------------------

Number of atoms                         .... 25
Number of degrees of freedom            .... 113

         *************************************************************
         *                GEOMETRY OPTIMIZATION CYCLE   1            *
         *************************************************************
---------------------------------
CARTESIAN COORDINATES (ANGSTROEM)
---------------------------------
  N     -1.036189    1.940859   -2.928432
  H     -1.754664    2.516262   -2.488524
  C     -0.964130    1.943591   -4.382935
  C     -2.132473    1.241240   -5.081908
  H     -0.920763    2.980963   -4.755604
  H     -0.035717    1.435793   -4.682933
  O     -2.178754    1.068613   -6.275083
  C     -0.372067    1.054693   -2.168114
  C     -0.638974    1.132751   -0.641963
  O      0.430772    0.229409   -2.652620
  N      0.000000    0.000000    0.000000
  H     -1.719991    1.136322   -0.428788
  H     -0.198571    2.062694   -0.246222
  H     -0.468126   -0.899205   -0.109971
  C      1.368452    0.000000    0.000000
  C      2.048903   -1.347581   -0.290108
  O      2.060582    1.010223    0.000000
  H      1.376721   -2.217959   -0.315506
  H      2.902634   -1.536335    0.376577
  O     -3.096350    0.864287   -4.205620
  H     -3.811734    0.447860   -4.734591
  N      2.554706   -1.099624   -1.694785
  H      1.731070   -0.668924   -2.242514
  H      3.279948   -0.362625   -1.653936
  H      2.940342   -1.934810   -2.158838

----------------------------
CARTESIAN COORDINATES (A.U.)
----------------------------
  NO LB      ZA    FRAG     MASS         X           Y           Z
   0 N     7.0000    0    14.007   -1.958113    3.667692   -5.533934
   1 H     1.0000    0     1.008   -3.315834    4.755046   -4.702629
   2 C     6.0000    0    12.011   -1.821942    3.672855   -8.282547
   3 C     6.0000    0    12.011   -4.029790    2.345604   -9.603414
   4 H     1.0000    0     1.008   -1.739990    5.633204   -8.986789
   5 H     1.0000    0     1.008   -0.067495    2.713256   -8.849461
   6 O     8.0000    0    15.999   -4.117248    2.019386  -11.858188
   7 C     6.0000    0    12.011   -0.703105    1.993081   -4.097142
   8 C     6.0000    0    12.011   -1.207486    2.140589   -1.213134
   9 O     8.0000    0    15.999    0.814041    0.433520   -5.012725
  10 N     7.0000    0    14.007    0.000000    0.000000    0.000000
  11 H     1.0000    0     1.008   -3.250312    2.147337   -0.810292
  12 H     1.0000    0     1.008   -0.375245    3.897927   -0.465292
  13 H     1.0000    0     1.008   -0.884630   -1.699251   -0.207815
  14 C     6.0000    0    12.011    2.586000    0.000000    0.000000
  15 C     6.0000    0    12.011    3.871866   -2.546559   -0.548225
  16 O     8.0000    0    15.999    3.893936    1.909045    0.000000
  17 H     1.0000    0     1.008    2.601626   -4.191335   -0.596220
  18 H     1.0000    0     1.008    5.485183   -2.903252    0.711627
  19 O     8.0000    0    15.999   -5.851254    1.633266   -7.947470
  20 H     1.0000    0     1.008   -7.203133    0.846333   -8.947080
  21 N     7.0000    0    14.007    4.827695   -2.077988   -3.202680
  22 H     1.0000    0     1.008    3.271248   -1.264083   -4.237737
  23 H     1.0000    0     1.008    6.198203   -0.685262   -3.125486
  24 H     1.0000    0     1.008    5.556441   -3.656261   -4.079613

--------------------------------
INTERNAL COORDINATES (ANGSTROEM)
--------------------------------
 N      0   0   0     0.000000000000     0.00000000     0.00000000
 H      1   0   0     1.020202914374     0.00000000     0.00000000
 C      1   2   0     1.456289442492   117.67505714     0.00000000
 C      3   1   2     1.531954812512   114.65198496   290.01643413
 H      3   1   2     1.103133512606   109.94528563    51.74251905
 H      3   1   2     1.099912863538   108.25896732   169.49643392
 O      4   3   1     1.206486051604   123.09864754   185.54722764
 C      1   2   3     1.343291357660   118.43698805   191.44307549
 C      8   1   2     1.551279882166   116.01352165   352.02423096
 O      8   1   2     1.249155796774   122.28022302   173.18310913
 N      9   8   1     1.450354816604   108.68431037   172.01702608
 H      9   8   1     1.101841225837   111.05751415    50.33978009
 H      9   8   1     1.102433546632   109.07876012   290.62338178
 H     11   9   8     1.019708392013   116.02299930   284.42316335
 C     11   9   8     1.368452000000   116.13986684    68.39017477
 C     15  11   9     1.537254294717   116.27247677   221.69073588
 O     15  11   9     1.224579293729   124.41605509    29.54149161
 H     16  15  11     1.100014346457   115.30836517   350.83746144
 H     16  15  11     1.099524252621   112.31823249   222.82910770
 O      4   3   1     1.356109543614   112.00434163     6.42747511
 H     20   4   3     0.982342115877   106.70778866   178.51319909
 N     16  15  11     1.513418918537   100.33892410   106.78675464
 H     22  16  15     1.078835394273   106.34852041   312.90119879
 H     22  16  15     1.034800524433   108.31751788    66.12695745
 H     22  16  15     1.030337792135   114.22432626   188.35844203

---------------------------
INTERNAL COORDINATES (A.U.)
---------------------------
 N      0   0   0     0.000000000000     0.00000000     0.00000000
 H      1   0   0     1.927904109196     0.00000000     0.00000000
 C      1   2   0     2.751988218031   117.67505714     0.00000000
 C      3   1   2     2.894975045191   114.65198496   290.01643413
 H      3   1   2     2.084620227976   109.94528563    51.74251905
 H      3   1   2     2.078534083264   108.25896732   169.49643392
 O      4   3   1     2.279928221928   123.09864754   185.54722764
 C      1   2   3     2.538452784041   118.43698805   191.44307549
 C      8   1   2     2.931494134356   116.01352165   352.02423096
 O      8   1   2     2.360562354502   122.28022302   173.18310913
 N      9   8   1     2.740773400395   108.68431037   172.01702608
 H      9   8   1     2.082178159897   111.05751415    50.33978009
 H      9   8   1     2.083297483981   109.07876012   290.62338178
 H     11   9   8     1.926969597366   116.02299930   284.42316335
 C     11   9   8     2.585999507417   116.13986684    68.39017477
 C     15  11   9     2.904989615209   116.27247677   221.69073588
 O     15  11   9     2.314119494418   124.41605509    29.54149161
 H     16  15  11     2.078725858189   115.30836517   350.83746144
 H     16  15  11     2.077799715058   112.31823249   222.82910770
 O      4   3   1     2.562675645028   112.00434163     6.42747511
 H     20   4   3     1.856357568825   106.70778866   178.51319909
 N     16  15  11     2.859947281931   100.33892410   106.78675464
 H     22  16  15     2.038703438758   106.34852041   312.90119879
 H     22  16  15     1.955489594416   108.31751788    66.12695745
 H     22  16  15     1.947056252564   114.22432626   188.35844203

---------------------
BASIS SET INFORMATION
---------------------
There are 4 groups of distinct atoms

 Group   1 Type N   : 11s6p2d1f contracted to 5s3p2d1f pattern {62111/411/11/1}
 Group   2 Type H   : 5s2p1d contracted to 3s2p1d pattern {311/11/1}
 Group   3 Type C   : 11s6p2d1f contracted to 5s3p2d1f pattern {62111/411/11/1}
 Group   4 Type O   : 11s6p2d1f contracted to 5s3p2d1f pattern {62111/411/11/1}

Atom   0N    basis set group =>   1
Atom   1H    basis set group =>   2
Atom   2C    basis set group =>   3
Atom   3C    basis set group =>   3
Atom   4H    basis set group =>   2
Atom   5H    basis set group =>   2
Atom   6O    basis set group =>   4
Atom   7C    basis set group =>   3
Atom   8C    basis set group =>   3
Atom   9O    basis set group =>   4
Atom  10N    basis set group =>   1
Atom  11H    basis set group =>   2
Atom  12H    basis set group =>   2
Atom  13H    basis set group =>   2
Atom  14C    basis set group =>   3
Atom  15C    basis set group =>   3
Atom  16O    basis set group =>   4
Atom  17H    basis set group =>   2
Atom  18H    basis set group =>   2
Atom  19O    basis set group =>   4
Atom  20H    basis set group =>   2
Atom  21N    basis set group =>   1
Atom  22H    basis set group =>   2
Atom  23H    basis set group =>   2
Atom  24H    basis set group =>   2
---------------------------------
AUXILIARY/J BASIS SET INFORMATION
---------------------------------
There are 4 groups of distinct atoms

 Group   1 Type N   : 12s5p4d2f1g contracted to 6s4p3d1f1g pattern {711111/2111/211/2/1}
 Group   2 Type H   : 5s2p1d contracted to 3s1p1d pattern {311/2/1}
 Group   3 Type C   : 12s5p4d2f1g contracted to 6s4p3d1f1g pattern {711111/2111/211/2/1}
 Group   4 Type O   : 12s5p4d2f1g contracted to 6s4p3d1f1g pattern {711111/2111/211/2/1}

Atom   0N    basis set group =>   1
Atom   1H    basis set group =>   2
Atom   2C    basis set group =>   3
Atom   3C    basis set group =>   3
Atom   4H    basis set group =>   2
Atom   5H    basis set group =>   2
Atom   6O    basis set group =>   4
Atom   7C    basis set group =>   3
Atom   8C    basis set group =>   3
Atom   9O    basis set group =>   4
Atom  10N    basis set group =>   1
Atom  11H    basis set group =>   2
Atom  12H    basis set group =>   2
Atom  13H    basis set group =>   2
Atom  14C    basis set group =>   3
Atom  15C    basis set group =>   3
Atom  16O    basis set group =>   4
Atom  17H    basis set group =>   2
Atom  18H    basis set group =>   2
Atom  19O    basis set group =>   4
Atom  20H    basis set group =>   2
Atom  21N    basis set group =>   1
Atom  22H    basis set group =>   2
Atom  23H    basis set group =>   2
Atom  24H    basis set group =>   2


           ************************************************************
           *        Program running with 8 parallel MPI-processes     *
           *              working on a common directory               *
           ************************************************************
------------------------------------------------------------------------------
                           ORCA GTO INTEGRAL CALCULATION
                           -- RI-GTO INTEGRALS CHOSEN --
------------------------------------------------------------------------------
------------------------------------------------------------------------------
                   ___                                                        
                  /   \      - P O W E R E D   B Y -                         
                 /     \                                                     
                 |  |  |   _    _      __       _____    __    __             
                 |  |  |  | |  | |    /  \     |  _  \  |  |  /  |          
                  \  \/   | |  | |   /    \    | | | |  |  | /  /          
                 / \  \   | |__| |  /  /\  \   | |_| |  |  |/  /          
                |  |  |   |  __  | /  /__\  \  |    /   |      \           
                |  |  |   | |  | | |   __   |  |    \   |  |\   \          
                \     /   | |  | | |  |  |  |  | |\  \  |  | \   \       
                 \___/    |_|  |_| |__|  |__|  |_| \__\ |__|  \__/        
                                                                              
                      - O R C A' S   B I G   F R I E N D -                    
                                      &                                       
                       - I N T E G R A L  F E E D E R -                       
                                                                              
 v1 FN, 2020, v2 2021                                                         
------------------------------------------------------------------------------


Reading SHARK input file GGG-H_tt_024_OptFreq.SHARKINP.tmp ... ok
----------------------
SHARK INTEGRAL PACKAGE
----------------------

Number of atoms                             ...     25
Number of basis functions                   ...    571
Number of shells                            ...    215
Maximum angular momentum                    ...      3
Integral batch strategy                     ... SHARK/LIBINT Hybrid
RI-J (if used) integral strategy            ... SPLIT-RIJ (Revised 2003 algorithm where possible)
Printlevel                                  ...      1
Contraction scheme used                     ... SEGMENTED contraction
Coulomb Range Separation                    ... NOT USED
Exchange Range Separation                   ... Long Range
   Mu parameter                             ...  0.300000
   Scaling (regular/separated)              ...  0.167000  0.833000
Finite Nucleus Model                        ... NOT USED
Auxiliary Coulomb fitting basis             ... AVAILABLE
   # of basis functions in Aux-J            ...    769
   # of shells in Aux-J                     ...    255
   Maximum angular momentum in Aux-J        ...      4
Auxiliary J/K fitting basis                 ... NOT available
Auxiliary Correlation fitting basis         ... NOT available
Auxiliary 'external' fitting basis          ... NOT available
Integral threshold                          ...     1.000000e-12
Primitive cut-off                           ...     1.000000e-14
Primitive pair pre-selection threshold      ...     1.000000e-14

Calculating pre-screening integrals         ... done (  0.1 sec) Dimension = 215
Organizing shell pair data                  ... done (  0.2 sec)
Shell pair information
Total number of shell pairs                 ...     23220
Shell pairs after pre-screening             ...     18715
Total number of primitive shell pairs       ...     63868
Primitive shell pairs kept                  ...     37688
          la=0 lb=0:   4138 shell pairs
          la=1 lb=0:   5282 shell pairs
          la=1 lb=1:   1730 shell pairs
          la=2 lb=0:   2951 shell pairs
          la=2 lb=1:   1939 shell pairs
          la=2 lb=2:    553 shell pairs
          la=3 lb=0:   1024 shell pairs
          la=3 lb=1:    665 shell pairs
          la=3 lb=2:    365 shell pairs
          la=3 lb=3:     68 shell pairs

Calculating one electron integrals          ... done (  0.0 sec)
Calculating RI/J V-Matrix + Cholesky decomp.... done (  0.3 sec)
Calculating Nuclear repulsion               ... done (  0.0 sec) ENN=    845.426909592712 Eh

SHARK setup successfully completed in   1.4 seconds

Maximum memory used throughout the entire GTOINT-calculation: 30.6 MB


           ************************************************************
           *        Program running with 8 parallel MPI-processes     *
           *              working on a common directory               *
           ************************************************************
-------------------------------------------------------------------------------
                                 ORCA SCF
-------------------------------------------------------------------------------

------------
SCF SETTINGS
------------
Hamiltonian:
 Density Functional     Method          .... DFT(GTOs)
 Exchange Functional    Exchange        .... WB97X-V
 Correlation Functional Correlation     .... WB97X-V
 Gradients option       PostSCFGGA      .... off
 Hybrid DFT is turned on
   Fraction HF Exchange ScalHFX         ....  0.167000
   Scaling of DF-GGA-X  ScalDFX         ....  0.000000
   Scaling of DF-GGA-C  ScalDFC         ....  1.000000
   Scaling of DF-LDA-C  ScalLDAC        ....  1.000000
   Perturbative correction              ....  0.000000
   Density functional embedding theory  .... OFF
 Long-range corrected/Screened/Range-Separated Hybrid DFT is turned on
   Amount of maximum screened exact exchange              ....  0.833000
   Range separation parameter mu (erf(mu*r12)/r12)        ....  0.300000
 RI-approximation to the Coulomb term is turned on
   Number of AuxJ basis functions       .... 769
   RIJ-COSX (HFX calculated with COS-X)).... on


General Settings:
 Integral files         IntName         .... GGG-H_tt_024_OptFreq
 Hartree-Fock type      HFTyp           .... RHF
 Total Charge           Charge          ....    1
 Multiplicity           Mult            ....    1
 Number of Electrons    NEL             ....  100
 Basis Dimension        Dim             ....  571
 Nuclear Repulsion      ENuc            ....    845.4269095927 Eh

Convergence Acceleration:
 DIIS                   CNVDIIS         .... on
   Start iteration      DIISMaxIt       ....    12
   Startup error        DIISStart       ....  0.200000
   # of expansion vecs  DIISMaxEq       ....     5
   Bias factor          DIISBfac        ....   1.050
   Max. coefficient     DIISMaxC        ....  10.000
 Trust-Rad. Augm. Hess. CNVTRAH         .... auto
   Auto Start mean grad. ratio tolernc. ....  1.125000
   Auto Start start iteration           ....    20
   Auto Start num. interpolation iter.  ....    10
   Max. Number of Micro iterations      ....    16
   Max. Number of Macro iterations      .... Maxiter - #DIIS iter
   Number of Davidson start vectors     ....     2
   Converg. threshold I  (grad. norm)   ....   2.000e-06
   Converg. threshold II (energy diff.) ....   1.000e-09
   Grad. Scal. Fac. for Micro threshold ....   0.100
   Minimum threshold for Micro iter.    ....   0.010
   NR start threshold (gradient norm)   ....   0.001
   Initial trust radius                 ....   0.400
   Minimum AH scaling param. (alpha)    ....   1.000
   Maximum AH scaling param. (alpha)    .... 1000.000
   Orbital update algorithm             .... Taylor
   White noise on init. David. guess    .... on
   Maximum white noise                  ....   0.010
   Quad. conv. algorithm                .... NR
 SOSCF                  CNVSOSCF        .... on
   Start iteration      SOSCFMaxIt      ....   150
   Startup grad/error   SOSCFStart      ....  0.003300
 Level Shifting         CNVShift        .... on
   Level shift para.    LevelShift      ....    0.2500
   Turn off err/grad.   ShiftErr        ....    0.0010
 Zerner damping         CNVZerner       .... off
 Static damping         CNVDamp         .... on
   Fraction old density DampFac         ....    0.7000
   Max. Damping (<1)    DampMax         ....    0.9800
   Min. Damping (>=0)   DampMin         ....    0.0000
   Turn off err/grad.   DampErr         ....    0.1000
 Fernandez-Rico         CNVRico         .... off

SCF Procedure:
 Maximum # iterations   MaxIter         ....   125
 SCF integral mode      SCFMode         .... Direct
   Integral package                     .... SHARK and LIBINT hybrid scheme
 Reset frequency        DirectResetFreq ....    20
 Integral Threshold     Thresh          ....  1.000e-12 Eh
 Primitive CutOff       TCut            ....  1.000e-14 Eh

Convergence Tolerance:
 Convergence Check Mode ConvCheckMode   .... Total+1el-Energy
 Convergence forced     ConvForced      .... 0
 Energy Change          TolE            ....  1.000e-09 Eh
 1-El. energy change                    ....  1.000e-06 Eh
 Orbital Gradient       TolG            ....  2.000e-06
 Orbital Rotation angle TolX            ....  2.000e-06
 DIIS Error             TolErr          ....  1.000e-08


Diagonalization of the overlap matrix:
Smallest eigenvalue                        ... 1.298e-04
Time for diagonalization                   ...    0.058 sec
Threshold for overlap eigenvalues          ... 1.000e-08
Number of eigenvalues below threshold      ... 0
Time for construction of square roots      ...    0.152 sec
Total time needed                          ...    0.214 sec

Time for model grid setup =    0.592 sec

------------------------------
INITIAL GUESS: MODEL POTENTIAL
------------------------------
Loading Hartree-Fock densities                     ... done
Calculating cut-offs                               ... done
Initializing the effective Hamiltonian             ... done
Setting up the integral package (SHARK)            ... done
Starting the Coulomb interaction                   ... done (   0.3 sec)
Reading the grid                                   ... done
Mapping shells                                     ... done
Starting the XC term evaluation                    ... done (   0.1 sec)
  promolecular density results
     # of electrons  =    100.994162194
     EX              =    -58.965272317
     EC              =     -4.265431653
     EX+EC           =    -63.230703970
Transforming the Hamiltonian                       ... done (   0.0 sec)
Diagonalizing the Hamiltonian                      ... done (   0.0 sec)
Back transforming the eigenvectors                 ... done (   0.0 sec)
Now organizing SCF variables                       ... done
                      ------------------
                      INITIAL GUESS DONE (   1.1 sec)
                      ------------------
-------------------
DFT GRID GENERATION
-------------------

General Integration Accuracy     IntAcc      ... 4.959
Radial Grid Type                 RadialGrid  ... OptM3 with GC (2021)
Angular Grid (max. ang.)         AngularGrid ... 6 (Lebedev-590)
Angular grid pruning method      GridPruning ... 4 (adaptive)
Weight generation scheme         WeightScheme... Becke
Basis function cutoff            BFCut       ... 1.0000e-12
Integration weight cutoff        WCut        ... 1.0000e-14
Angular grids for H and He will be reduced by one unit
Partially contracted basis set               ... off
Rotationally invariant grid construction     ... off

Total number of grid points                  ...   289393
Total number of batches                      ...     4534
Average number of points per batch           ...       63
Average number of grid points per atom       ...    11576
Time for grid setup =    3.470 sec

--------------------
COSX GRID GENERATION
--------------------

GRIDX 1
-------
General Integration Accuracy     IntAcc      ... 4.020
Radial Grid Type                 RadialGrid  ... OptM3 with GC (2021)
Angular Grid (max. ang.)         AngularGrid ... 2 (Lebedev-110)
Angular grid pruning method      GridPruning ... 4 (adaptive)
Weight generation scheme         WeightScheme... Becke
Basis function cutoff            BFCut       ... 1.0000e-12
Integration weight cutoff        WCut        ... 1.0000e-14
Angular grids for H and He will be reduced by one unit
Partially contracted basis set               ... on
Rotationally invariant grid construction     ... off

Total number of grid points                  ...    32277
Total number of batches                      ...      518
Average number of points per batch           ...       62
Average number of grid points per atom       ...     1291
UseSFitting                                  ... on

GRIDX 2
-------
General Integration Accuracy     IntAcc      ... 4.338
Radial Grid Type                 RadialGrid  ... OptM3 with GC (2021)
Angular Grid (max. ang.)         AngularGrid ... 3 (Lebedev-194)
Angular grid pruning method      GridPruning ... 4 (adaptive)
Weight generation scheme         WeightScheme... Becke
Basis function cutoff            BFCut       ... 1.0000e-12
Integration weight cutoff        WCut        ... 1.0000e-14
Angular grids for H and He will be reduced by one unit
Partially contracted basis set               ... on
Rotationally invariant grid construction     ... off

Total number of grid points                  ...    70762
Total number of batches                      ...     1118
Average number of points per batch           ...       63
Average number of grid points per atom       ...     2830
UseSFitting                                  ... on

GRIDX 3
-------
General Integration Accuracy     IntAcc      ... 4.871
Radial Grid Type                 RadialGrid  ... OptM3 with GC (2021)
Angular Grid (max. ang.)         AngularGrid ... 4 (Lebedev-302)
Angular grid pruning method      GridPruning ... 4 (adaptive)
Weight generation scheme         WeightScheme... Becke
Basis function cutoff            BFCut       ... 1.0000e-12
Integration weight cutoff        WCut        ... 1.0000e-14
Angular grids for H and He will be reduced by one unit
Partially contracted basis set               ... on
Rotationally invariant grid construction     ... off

Total number of grid points                  ...   134024
Total number of batches                      ...     2109
Average number of points per batch           ...       63
Average number of grid points per atom       ...     5361
UseSFitting                                  ... on

Time for X-Grid setup             =    2.766 sec

--------------
SCF ITERATIONS
--------------
ITER       Energy         Delta-E        Max-DP      RMS-DP      [F,P]     Damp
               ***  Starting incremental Fock matrix formation  ***
  0   -701.1595320353   0.000000000000 0.05791345  0.00048523  0.3432142 0.7000
  1   -701.2075446966  -0.048012661307 0.05326207  0.00043779  0.2340959 0.7000
                               ***Turning on DIIS***
  2   -701.2350789261  -0.027534229485 0.04798428  0.00034005  0.1630906 0.7000
  3   -701.2532043568  -0.018125430720 0.04298421  0.00027206  0.1124438 0.7000
  4   -701.2659633415  -0.012758984667 0.11484179  0.00071773  0.0774233 0.0000
                      *** Initiating the SOSCF procedure ***
                           *** Shutting down DIIS ***
                      *** Re-Reading the Fockian *** 
                      *** Removing any level shift *** 
ITER      Energy       Delta-E        Grad      Rot      Max-DP    RMS-DP
  5   -701.29681484  -0.0308515029  0.001679  0.001679  0.012248  0.000074
               *** Restarting incremental Fock matrix formation ***
  6   -701.29695249  -0.0001376501  0.001057  0.002431  0.007557  0.000045
  7   -701.29699220  -0.0000397039  0.000507  0.002380  0.005309  0.000034
  8   -701.29700152  -0.0000093211  0.000284  0.000423  0.001008  0.000010
  9   -701.29700395  -0.0000024288  0.000080  0.000102  0.000859  0.000005
 10   -701.29700419  -0.0000002423  0.000030  0.000096  0.000292  0.000002
 11   -701.29700435  -0.0000001545  0.000012  0.000034  0.000015  0.000000
 12   -701.29700435  -0.0000000050  0.000005  0.000014  0.000036  0.000000
 13   -701.29700435  -0.0000000024  0.000003  0.000012  0.000016  0.000000
 14   -701.29700435  -0.0000000003  0.000001  0.000004  0.000003  0.000000
 15   -701.29700435   0.0000000008  0.000001  0.000001  0.000003  0.000000
                  ***Gradient check signals convergence***
              ***Rediagonalizing the Fockian in SOSCF/NRSCF***

               *****************************************************
               *                     SUCCESS                       *
               *           SCF CONVERGED AFTER  16 CYCLES          *
               *****************************************************

Old exchange energy                            =    -27.831051627 Eh
New exchange energy                            =    -27.831050355 Eh
Exchange energy change after final integration =      0.000001272 Eh
Total energy after final integration           =   -701.297003079 Eh
Final COS-X integration done in                =    34.113 sec

----------------
TOTAL SCF ENERGY
----------------

Total Energy       :         -701.29700308 Eh          -19083.26163 eV

Components:
Nuclear Repulsion  :          845.42690959 Eh           23005.23577 eV
Electronic Energy  :        -1546.72391267 Eh          -42088.49740 eV
One Electron Energy:        -2619.51072665 Eh          -71280.51070 eV
Two Electron Energy:         1072.78681398 Eh           29192.01330 eV
Max COSX asymmetry :            0.00000102 Eh               0.00003 eV

Virial components:
Potential Energy   :        -1399.26344558 Eh          -38075.89410 eV
Kinetic Energy     :          697.96644250 Eh           18992.63247 eV
Virial Ratio       :            2.00477181


DFT components:
N(Alpha)           :       49.999998372101 electrons
N(Beta)            :       49.999998372101 electrons
N(Total)           :       99.999996744201 electrons
E(X)               :      -60.045425678043 Eh       
E(C)               :       -4.264092496722 Eh       
E(XC)              :      -64.309518174765 Eh       
DFET-embed. en.    :        0.000000000000 Eh       

---------------
SCF CONVERGENCE
---------------

  Last Energy change         ...    6.5666e-10  Tolerance :   1.0000e-09
  Last MAX-Density change    ...    2.5535e-15  Tolerance :   1.0000e-08
  Last RMS-Density change    ...    1.4972e-17  Tolerance :   1.0000e-09
  Last Orbital Gradient      ...    1.2416e-07  Tolerance :   2.0000e-06
  Last Orbital Rotation      ...    2.0089e-07  Tolerance :   2.0000e-06

             **** THE GBW FILE WAS UPDATED (GGG-H_tt_024_OptFreq.gbw) ****
             **** DENSITY GGG-H_tt_024_OptFreq.scfp WAS UPDATED ****
             **** ENERGY FILE WAS UPDATED (GGG-H_tt_024_OptFreq.en.tmp) ****
             **** THE GBW FILE WAS UPDATED (GGG-H_tt_024_OptFreq.gbw) ****
             **** DENSITY GGG-H_tt_024_OptFreq.scfp WAS UPDATED ****
----------------
ORBITAL ENERGIES
----------------

  NO   OCC          E(Eh)            E(eV) 
   0   2.0000     -19.383269      -527.4456 
   1   2.0000     -19.354374      -526.6593 
   2   2.0000     -19.349021      -526.5136 
   3   2.0000     -19.318721      -525.6891 
   4   2.0000     -14.692503      -399.8033 
   5   2.0000     -14.600824      -397.3086 
   6   2.0000     -14.599319      -397.2677 
   7   2.0000     -10.548895      -287.0500 
   8   2.0000     -10.547378      -287.0087 
   9   2.0000     -10.528474      -286.4944 
  10   2.0000     -10.512831      -286.0687 
  11   2.0000     -10.477698      -285.1127 
  12   2.0000     -10.457258      -284.5565 
  13   2.0000      -1.357383       -36.9363 
  14   2.0000      -1.349792       -36.7297 
  15   2.0000      -1.331558       -36.2335 
  16   2.0000      -1.286371       -35.0039 
  17   2.0000      -1.265797       -34.4441 
  18   2.0000      -1.222659       -33.2703 
  19   2.0000      -1.216607       -33.1056 
  20   2.0000      -1.056921       -28.7603 
  21   2.0000      -1.028048       -27.9746 
  22   2.0000      -0.979950       -26.6658 
  23   2.0000      -0.888051       -24.1651 
  24   2.0000      -0.879463       -23.9314 
  25   2.0000      -0.865874       -23.5616 
  26   2.0000      -0.862081       -23.4584 
  27   2.0000      -0.845787       -23.0150 
  28   2.0000      -0.808356       -21.9965 
  29   2.0000      -0.792413       -21.5627 
  30   2.0000      -0.766432       -20.8557 
  31   2.0000      -0.754162       -20.5218 
  32   2.0000      -0.738772       -20.1030 
  33   2.0000      -0.732360       -19.9285 
  34   2.0000      -0.711742       -19.3675 
  35   2.0000      -0.711156       -19.3515 
  36   2.0000      -0.699420       -19.0322 
  37   2.0000      -0.691291       -18.8110 
  38   2.0000      -0.685554       -18.6549 
  39   2.0000      -0.673863       -18.3368 
  40   2.0000      -0.643274       -17.5044 
  41   2.0000      -0.636578       -17.3222 
  42   2.0000      -0.628733       -17.1087 
  43   2.0000      -0.625453       -17.0194 
  44   2.0000      -0.553203       -15.0534 
  45   2.0000      -0.549567       -14.9545 
  46   2.0000      -0.545498       -14.8437 
  47   2.0000      -0.537383       -14.6229 
  48   2.0000      -0.521348       -14.1866 
  49   2.0000      -0.494133       -13.4460 
  50   0.0000      -0.086376        -2.3504 
  51   0.0000      -0.063950        -1.7402 
  52   0.0000      -0.056608        -1.5404 
  53   0.0000      -0.031675        -0.8619 
  54   0.0000      -0.023872        -0.6496 
  55   0.0000      -0.019280        -0.5246 
  56   0.0000      -0.006381        -0.1736 
  57   0.0000       0.008079         0.2199 
  58   0.0000       0.014507         0.3948 
  59   0.0000       0.028600         0.7782 
  60   0.0000       0.033962         0.9242 
  61   0.0000       0.044944         1.2230 
  62   0.0000       0.061273         1.6673 
  63   0.0000       0.070395         1.9155 
  64   0.0000       0.073269         1.9937 
  65   0.0000       0.079927         2.1749 
  66   0.0000       0.090606         2.4655 
  67   0.0000       0.105319         2.8659 
  68   0.0000       0.105812         2.8793 
  69   0.0000       0.112263         3.0548 
  70   0.0000       0.119774         3.2592 
  71   0.0000       0.128103         3.4859 
  72   0.0000       0.136320         3.7095 
  73   0.0000       0.150453         4.0940 
  74   0.0000       0.156763         4.2657 
  75   0.0000       0.172709         4.6996 
  76   0.0000       0.174266         4.7420 
  77   0.0000       0.194110         5.2820 
  78   0.0000       0.202839         5.5195 
  79   0.0000       0.211534         5.7561 
  80   0.0000       0.223690         6.0869 
  81   0.0000       0.228877         6.2281 
  82   0.0000       0.237963         6.4753 
  83   0.0000       0.245230         6.6731 
  84   0.0000       0.258618         7.0373 
  85   0.0000       0.259742         7.0679 
  86   0.0000       0.273910         7.4535 
  87   0.0000       0.281971         7.6728 
  88   0.0000       0.288032         7.8377 
  89   0.0000       0.294981         8.0268 
  90   0.0000       0.309798         8.4300 
  91   0.0000       0.312648         8.5076 
  92   0.0000       0.315760         8.5923 
  93   0.0000       0.323915         8.8142 
  94   0.0000       0.328681         8.9439 
  95   0.0000       0.336824         9.1654 
  96   0.0000       0.345992         9.4149 
  97   0.0000       0.348951         9.4954 
  98   0.0000       0.351516         9.5652 
  99   0.0000       0.354716         9.6523 
 100   0.0000       0.355874         9.6838 
 101   0.0000       0.364431         9.9167 
 102   0.0000       0.378615        10.3026 
 103   0.0000       0.382146        10.3987 
 104   0.0000       0.383899        10.4464 
 105   0.0000       0.387178        10.5356 
 106   0.0000       0.400205        10.8901 
 107   0.0000       0.401302        10.9200 
 108   0.0000       0.412523        11.2253 
 109   0.0000       0.421407        11.4671 
 110   0.0000       0.432573        11.7709 
 111   0.0000       0.441123        12.0036 
 112   0.0000       0.448912        12.2155 
 113   0.0000       0.460096        12.5198 
 114   0.0000       0.475095        12.9280 
 115   0.0000       0.476511        12.9665 
 116   0.0000       0.485250        13.2043 
 117   0.0000       0.494168        13.4470 
 118   0.0000       0.500820        13.6280 
 119   0.0000       0.510814        13.9000 
 120   0.0000       0.517310        14.0767 
 121   0.0000       0.519646        14.1403 
 122   0.0000       0.543651        14.7935 
 123   0.0000       0.553549        15.0628 
 124   0.0000       0.564722        15.3669 
 125   0.0000       0.578103        15.7310 
 126   0.0000       0.585073        15.9206 
 127   0.0000       0.594573        16.1791 
 128   0.0000       0.598720        16.2920 
 129   0.0000       0.616833        16.7849 
 130   0.0000       0.624107        16.9828 
 131   0.0000       0.640374        17.4255 
 132   0.0000       0.651617        17.7314 
 133   0.0000       0.657337        17.8870 
 134   0.0000       0.673961        18.3394 
 135   0.0000       0.676307        18.4032 
 136   0.0000       0.683382        18.5958 
 137   0.0000       0.703057        19.1312 
 138   0.0000       0.709154        19.2971 
 139   0.0000       0.734889        19.9973 
 140   0.0000       0.746302        20.3079 
 141   0.0000       0.748635        20.3714 
 142   0.0000       0.760658        20.6985 
 143   0.0000       0.768714        20.9178 
 144   0.0000       0.796724        21.6800 
 145   0.0000       0.803056        21.8523 
 146   0.0000       0.810510        22.0551 
 147   0.0000       0.829341        22.5675 
 148   0.0000       0.838477        22.8161 
 149   0.0000       0.849025        23.1031 
 150   0.0000       0.857522        23.3344 
 151   0.0000       0.872877        23.7522 
 152   0.0000       0.880589        23.9621 
 153   0.0000       0.891416        24.2567 
 154   0.0000       0.899712        24.4824 
 155   0.0000       0.906579        24.6693 
 156   0.0000       0.914378        24.8815 
 157   0.0000       0.926888        25.2219 
 158   0.0000       0.937515        25.5111 
 159   0.0000       0.947459        25.7817 
 160   0.0000       0.965375        26.2692 
 161   0.0000       0.970933        26.4204 
 162   0.0000       0.977371        26.5956 
 163   0.0000       0.987375        26.8678 
 164   0.0000       0.994324        27.0569 
 165   0.0000       1.000628        27.2285 
 166   0.0000       1.010036        27.4845 
 167   0.0000       1.014816        27.6145 
 168   0.0000       1.019319        27.7371 
 169   0.0000       1.032121        28.0854 
 170   0.0000       1.037707        28.2374 
 171   0.0000       1.065626        28.9972 
 172   0.0000       1.077162        29.3111 
 173   0.0000       1.087839        29.6016 
 174   0.0000       1.102467        29.9996 
 175   0.0000       1.111089        30.2343 
 176   0.0000       1.112318        30.2677 
 177   0.0000       1.113238        30.2927 
 178   0.0000       1.127829        30.6898 
 179   0.0000       1.141956        31.0742 
 180   0.0000       1.165089        31.7037 
 181   0.0000       1.172507        31.9055 
 182   0.0000       1.180288        32.1173 
 183   0.0000       1.183241        32.1976 
 184   0.0000       1.192768        32.4569 
 185   0.0000       1.203094        32.7379 
 186   0.0000       1.208527        32.8857 
 187   0.0000       1.220683        33.2165 
 188   0.0000       1.239081        33.7171 
 189   0.0000       1.242510        33.8104 
 190   0.0000       1.250762        34.0350 
 191   0.0000       1.271605        34.6021 
 192   0.0000       1.290548        35.1176 
 193   0.0000       1.310029        35.6477 
 194   0.0000       1.322140        35.9773 
 195   0.0000       1.333439        36.2847 
 196   0.0000       1.354172        36.8489 
 197   0.0000       1.361339        37.0439 
 198   0.0000       1.382111        37.6092 
 199   0.0000       1.388136        37.7731 
 200   0.0000       1.391010        37.8513 
 201   0.0000       1.397654        38.0321 
 202   0.0000       1.403005        38.1777 
 203   0.0000       1.415968        38.5305 
 204   0.0000       1.426019        38.8040 
 205   0.0000       1.431958        38.9656 
 206   0.0000       1.443680        39.2845 
 207   0.0000       1.459648        39.7190 
 208   0.0000       1.465270        39.8720 
 209   0.0000       1.480751        40.2933 
 210   0.0000       1.496680        40.7267 
 211   0.0000       1.501148        40.8483 
 212   0.0000       1.513954        41.1968 
 213   0.0000       1.524060        41.4718 
 214   0.0000       1.541865        41.9563 
 215   0.0000       1.546950        42.0947 
 216   0.0000       1.555843        42.3366 
 217   0.0000       1.567757        42.6608 
 218   0.0000       1.587202        43.1900 
 219   0.0000       1.588422        43.2232 
 220   0.0000       1.606399        43.7123 
 221   0.0000       1.612500        43.8784 
 222   0.0000       1.631431        44.3935 
 223   0.0000       1.640938        44.6522 
 224   0.0000       1.654145        45.0116 
 225   0.0000       1.670800        45.4648 
 226   0.0000       1.699226        46.2383 
 227   0.0000       1.707875        46.4736 
 228   0.0000       1.725894        46.9640 
 229   0.0000       1.738435        47.3052 
 230   0.0000       1.754116        47.7319 
 231   0.0000       1.788671        48.6722 
 232   0.0000       1.801765        49.0285 
 233   0.0000       1.823022        49.6069 
 234   0.0000       1.840131        50.0725 
 235   0.0000       1.859937        50.6115 
 236   0.0000       1.871082        50.9147 
 237   0.0000       1.872723        50.9594 
 238   0.0000       1.896572        51.6083 
 239   0.0000       1.917471        52.1770 
 240   0.0000       1.925877        52.4058 
 241   0.0000       1.958094        53.2824 
 242   0.0000       1.971868        53.6573 
 243   0.0000       1.991260        54.1849 
 244   0.0000       1.997947        54.3669 
 245   0.0000       2.018775        54.9337 
 246   0.0000       2.034694        55.3668 
 247   0.0000       2.052889        55.8619 
 248   0.0000       2.057947        55.9996 
 249   0.0000       2.084750        56.7289 
 250   0.0000       2.091709        56.9183 
 251   0.0000       2.108876        57.3854 
 252   0.0000       2.136783        58.1448 
 253   0.0000       2.163703        58.8774 
 254   0.0000       2.187830        59.5339 
 255   0.0000       2.195543        59.7438 
 256   0.0000       2.230678        60.6998 
 257   0.0000       2.239122        60.9296 
 258   0.0000       2.251224        61.2589 
 259   0.0000       2.270166        61.7744 
 260   0.0000       2.286776        62.2263 
 261   0.0000       2.304997        62.7221 
 262   0.0000       2.309439        62.8430 
 263   0.0000       2.315342        63.0037 
 264   0.0000       2.369080        64.4659 
 265   0.0000       2.399459        65.2926 
 266   0.0000       2.415805        65.7374 
 267   0.0000       2.444915        66.5295 
 268   0.0000       2.455741        66.8241 
 269   0.0000       2.485772        67.6413 
 270   0.0000       2.493552        67.8530 
 271   0.0000       2.511713        68.3472 
 272   0.0000       2.517391        68.5017 
 273   0.0000       2.527906        68.7878 
 274   0.0000       2.547924        69.3325 
 275   0.0000       2.565009        69.7974 
 276   0.0000       2.569912        69.9309 
 277   0.0000       2.584050        70.3156 
 278   0.0000       2.592265        70.5391 
 279   0.0000       2.624346        71.4121 
 280   0.0000       2.633621        71.6645 
 281   0.0000       2.638913        71.8085 
 282   0.0000       2.651264        72.1446 
 283   0.0000       2.670953        72.6803 
 284   0.0000       2.674149        72.7673 
 285   0.0000       2.679510        72.9132 
 286   0.0000       2.698970        73.4427 
 287   0.0000       2.717252        73.9402 
 288   0.0000       2.733919        74.3937 
 289   0.0000       2.739247        74.5387 
 290   0.0000       2.748699        74.7959 
 291   0.0000       2.768023        75.3217 
 292   0.0000       2.772580        75.4457 
 293   0.0000       2.785489        75.7970 
 294   0.0000       2.797974        76.1367 
 295   0.0000       2.823446        76.8299 
 296   0.0000       2.827824        76.9490 
 297   0.0000       2.831761        77.0561 
 298   0.0000       2.857623        77.7599 
 299   0.0000       2.865077        77.9627 
 300   0.0000       2.878039        78.3154 
 301   0.0000       2.891287        78.6759 
 302   0.0000       2.898859        78.8820 
 303   0.0000       2.908654        79.1485 
 304   0.0000       2.923600        79.5552 
 305   0.0000       2.941873        80.0524 
 306   0.0000       2.950126        80.2770 
 307   0.0000       2.954880        80.4064 
 308   0.0000       2.979872        81.0864 
 309   0.0000       2.988260        81.3147 
 310   0.0000       2.999568        81.6224 
 311   0.0000       3.009112        81.8821 
 312   0.0000       3.016260        82.0766 
 313   0.0000       3.027524        82.3831 
 314   0.0000       3.037824        82.6634 
 315   0.0000       3.046048        82.8872 
 316   0.0000       3.057561        83.2005 
 317   0.0000       3.067194        83.4626 
 318   0.0000       3.084269        83.9272 
 319   0.0000       3.088346        84.0382 
 320   0.0000       3.089244        84.0626 
 321   0.0000       3.102779        84.4309 
 322   0.0000       3.111955        84.6806 
 323   0.0000       3.127214        85.0958 
 324   0.0000       3.131641        85.2163 
 325   0.0000       3.139302        85.4248 
 326   0.0000       3.149672        85.7069 
 327   0.0000       3.160309        85.9964 
 328   0.0000       3.172900        86.3390 
 329   0.0000       3.179274        86.5124 
 330   0.0000       3.193480        86.8990 
 331   0.0000       3.199219        87.0552 
 332   0.0000       3.203744        87.1783 
 333   0.0000       3.209254        87.3282 
 334   0.0000       3.219395        87.6042 
 335   0.0000       3.226491        87.7973 
 336   0.0000       3.236259        88.0631 
 337   0.0000       3.257261        88.6346 
 338   0.0000       3.268654        88.9446 
 339   0.0000       3.270877        89.0051 
 340   0.0000       3.287760        89.4645 
 341   0.0000       3.294619        89.6511 
 342   0.0000       3.306614        89.9775 
 343   0.0000       3.331600        90.6574 
 344   0.0000       3.336674        90.7955 
 345   0.0000       3.347367        91.0865 
 346   0.0000       3.355308        91.3026 
 347   0.0000       3.363484        91.5250 
 348   0.0000       3.371127        91.7330 
 349   0.0000       3.385443        92.1226 
 350   0.0000       3.390676        92.2650 
 351   0.0000       3.403957        92.6264 
 352   0.0000       3.422545        93.1322 
 353   0.0000       3.425433        93.2108 
 354   0.0000       3.430900        93.3595 
 355   0.0000       3.445863        93.7667 
 356   0.0000       3.462975        94.2323 
 357   0.0000       3.471070        94.4526 
 358   0.0000       3.479068        94.6703 
 359   0.0000       3.494170        95.0812 
 360   0.0000       3.500837        95.2626 
 361   0.0000       3.507154        95.4345 
 362   0.0000       3.529142        96.0328 
 363   0.0000       3.540002        96.3283 
 364   0.0000       3.549512        96.5871 
 365   0.0000       3.561354        96.9094 
 366   0.0000       3.567108        97.0660 
 367   0.0000       3.581569        97.4595 
 368   0.0000       3.589642        97.6791 
 369   0.0000       3.600945        97.9867 
 370   0.0000       3.618202        98.4563 
 371   0.0000       3.634281        98.8938 
 372   0.0000       3.642143        99.1077 
 373   0.0000       3.656276        99.4923 
 374   0.0000       3.664078        99.7046 
 375   0.0000       3.679018       100.1112 
 376   0.0000       3.682687       100.2110 
 377   0.0000       3.703305       100.7721 
 378   0.0000       3.717307       101.1531 
 379   0.0000       3.730405       101.5095 
 380   0.0000       3.743570       101.8677 
 381   0.0000       3.769441       102.5717 
 382   0.0000       3.775332       102.7320 
 383   0.0000       3.785023       102.9957 
 384   0.0000       3.798475       103.3618 
 385   0.0000       3.813899       103.7815 
 386   0.0000       3.819119       103.9235 
 387   0.0000       3.832464       104.2867 
 388   0.0000       3.856995       104.9542 
 389   0.0000       3.864405       105.1558 
 390   0.0000       3.876802       105.4931 
 391   0.0000       3.887328       105.7796 
 392   0.0000       3.899278       106.1047 
 393   0.0000       3.910304       106.4048 
 394   0.0000       3.919241       106.6480 
 395   0.0000       3.938138       107.1622 
 396   0.0000       3.950129       107.4885 
 397   0.0000       3.957232       107.6818 
 398   0.0000       3.967187       107.9526 
 399   0.0000       3.982210       108.3614 
 400   0.0000       3.995306       108.7178 
 401   0.0000       4.000227       108.8517 
 402   0.0000       4.006879       109.0327 
 403   0.0000       4.019406       109.3736 
 404   0.0000       4.031066       109.6909 
 405   0.0000       4.035951       109.8238 
 406   0.0000       4.060189       110.4833 
 407   0.0000       4.088220       111.2461 
 408   0.0000       4.103067       111.6501 
 409   0.0000       4.112709       111.9125 
 410   0.0000       4.120681       112.1294 
 411   0.0000       4.152246       112.9884 
 412   0.0000       4.158373       113.1551 
 413   0.0000       4.169380       113.4546 
 414   0.0000       4.178787       113.7106 
 415   0.0000       4.186343       113.9162 
 416   0.0000       4.190217       114.0216 
 417   0.0000       4.199205       114.2662 
 418   0.0000       4.215746       114.7163 
 419   0.0000       4.225491       114.9815 
 420   0.0000       4.237471       115.3075 
 421   0.0000       4.260713       115.9399 
 422   0.0000       4.281759       116.5126 
 423   0.0000       4.285707       116.6200 
 424   0.0000       4.295691       116.8917 
 425   0.0000       4.316587       117.4603 
 426   0.0000       4.319509       117.5398 
 427   0.0000       4.327448       117.7558 
 428   0.0000       4.345399       118.2443 
 429   0.0000       4.397651       119.6662 
 430   0.0000       4.405601       119.8825 
 431   0.0000       4.424682       120.4017 
 432   0.0000       4.443090       120.9026 
 433   0.0000       4.479496       121.8933 
 434   0.0000       4.494756       122.3085 
 435   0.0000       4.518972       122.9675 
 436   0.0000       4.548150       123.7615 
 437   0.0000       4.565447       124.2321 
 438   0.0000       4.583195       124.7151 
 439   0.0000       4.587373       124.8288 
 440   0.0000       4.617372       125.6451 
 441   0.0000       4.642519       126.3294 
 442   0.0000       4.651257       126.5671 
 443   0.0000       4.659765       126.7986 
 444   0.0000       4.669340       127.0592 
 445   0.0000       4.689086       127.5965 
 446   0.0000       4.701687       127.9394 
 447   0.0000       4.721804       128.4868 
 448   0.0000       4.732882       128.7883 
 449   0.0000       4.744899       129.1153 
 450   0.0000       4.759535       129.5135 
 451   0.0000       4.789485       130.3285 
 452   0.0000       4.805231       130.7570 
 453   0.0000       4.810891       130.9110 
 454   0.0000       4.837895       131.6458 
 455   0.0000       4.865055       132.3849 
 456   0.0000       4.891049       133.0922 
 457   0.0000       4.896638       133.2443 
 458   0.0000       4.920694       133.8989 
 459   0.0000       4.927279       134.0781 
 460   0.0000       4.944486       134.5463 
 461   0.0000       4.955473       134.8453 
 462   0.0000       4.983873       135.6181 
 463   0.0000       5.014136       136.4416 
 464   0.0000       5.026272       136.7718 
 465   0.0000       5.045941       137.3070 
 466   0.0000       5.059267       137.6697 
 467   0.0000       5.072813       138.0383 
 468   0.0000       5.091044       138.5344 
 469   0.0000       5.102870       138.8562 
 470   0.0000       5.114902       139.1836 
 471   0.0000       5.125179       139.4632 
 472   0.0000       5.147648       140.0746 
 473   0.0000       5.156261       140.3090 
 474   0.0000       5.159341       140.3928 
 475   0.0000       5.175991       140.8459 
 476   0.0000       5.186445       141.1304 
 477   0.0000       5.196996       141.4175 
 478   0.0000       5.214156       141.8844 
 479   0.0000       5.232699       142.3890 
 480   0.0000       5.247957       142.8042 
 481   0.0000       5.276272       143.5746 
 482   0.0000       5.293412       144.0411 
 483   0.0000       5.298117       144.1691 
 484   0.0000       5.307885       144.4349 
 485   0.0000       5.335800       145.1945 
 486   0.0000       5.344342       145.4269 
 487   0.0000       5.360893       145.8773 
 488   0.0000       5.387400       146.5986 
 489   0.0000       5.404860       147.0737 
 490   0.0000       5.450654       148.3198 
 491   0.0000       5.461608       148.6179 
 492   0.0000       5.468853       148.8150 
 493   0.0000       5.491329       149.4266 
 494   0.0000       5.497518       149.5951 
 495   0.0000       5.505310       149.8071 
 496   0.0000       5.521372       150.2442 
 497   0.0000       5.532445       150.5455 
 498   0.0000       5.546717       150.9338 
 499   0.0000       5.570311       151.5759 
 500   0.0000       5.582341       151.9032 
 501   0.0000       5.594304       152.2287 
 502   0.0000       5.609577       152.6444 
 503   0.0000       5.626219       153.0972 
 504   0.0000       5.635624       153.3531 
 505   0.0000       5.662073       154.0728 
 506   0.0000       5.685483       154.7099 
 507   0.0000       5.712688       155.4501 
 508   0.0000       5.749599       156.4546 
 509   0.0000       5.768660       156.9732 
 510   0.0000       5.796934       157.7426 
 511   0.0000       5.822886       158.4488 
 512   0.0000       5.879258       159.9828 
 513   0.0000       5.911037       160.8475 
 514   0.0000       5.947488       161.8394 
 515   0.0000       5.952451       161.9744 
 516   0.0000       5.972791       162.5279 
 517   0.0000       5.984326       162.8418 
 518   0.0000       6.026863       163.9993 
 519   0.0000       6.082849       165.5227 
 520   0.0000       6.128737       166.7714 
 521   0.0000       6.138283       167.0312 
 522   0.0000       6.144607       167.2033 
 523   0.0000       6.154205       167.4644 
 524   0.0000       6.288759       171.1258 
 525   0.0000       6.323697       172.0765 
 526   0.0000       6.334189       172.3621 
 527   0.0000       6.349513       172.7790 
 528   0.0000       6.377275       173.5345 
 529   0.0000       6.399509       174.1395 
 530   0.0000       6.407769       174.3643 
 531   0.0000       6.421828       174.7468 
 532   0.0000       6.439813       175.2362 
 533   0.0000       6.454333       175.6313 
 534   0.0000       6.477451       176.2604 
 535   0.0000       6.492950       176.6822 
 536   0.0000       6.517734       177.3566 
 537   0.0000       6.567123       178.7005 
 538   0.0000       6.574948       178.9134 
 539   0.0000       6.598536       179.5553 
 540   0.0000       6.650671       180.9739 
 541   0.0000       6.666967       181.4174 
 542   0.0000       6.716968       182.7780 
 543   0.0000       6.737580       183.3389 
 544   0.0000       6.813261       185.3983 
 545   0.0000       6.831203       185.8865 
 546   0.0000       6.847412       186.3276 
 547   0.0000       6.848572       186.3591 
 548   0.0000       6.923434       188.3962 
 549   0.0000       6.951465       189.1590 
 550   0.0000       7.043315       191.6584 
 551   0.0000       7.091151       192.9600 
 552   0.0000       7.100712       193.2202 
 553   0.0000       7.117795       193.6850 
 554   0.0000       7.223320       196.5565 
 555   0.0000       7.404902       201.4976 
 556   0.0000       7.435809       202.3387 
 557   0.0000       7.476985       203.4591 
 558   0.0000      23.125888       629.2874 
 559   0.0000      23.175289       630.6317 
 560   0.0000      23.235999       632.2837 
 561   0.0000      23.280296       633.4891 
 562   0.0000      23.292912       633.8324 
 563   0.0000      23.349529       635.3730 
 564   0.0000      32.722978       890.4375 
 565   0.0000      32.791927       892.3137 
 566   0.0000      32.930594       896.0870 
 567   0.0000      43.813000      1192.2123 
 568   0.0000      43.857268      1193.4169 
 569   0.0000      43.961587      1196.2556 
 570   0.0000      44.000550      1197.3158 

                    ********************************
                    * MULLIKEN POPULATION ANALYSIS *
                    ********************************

-----------------------
MULLIKEN ATOMIC CHARGES
-----------------------
   0 N :   -0.174828
   1 H :    0.200382
   2 C :   -0.065198
   3 C :    0.285189
   4 H :    0.148452
   5 H :    0.132637
   6 O :   -0.277189
   7 C :    0.346168
   8 C :   -0.094502
   9 O :   -0.477882
  10 N :   -0.181598
  11 H :    0.152126
  12 H :    0.161291
  13 H :    0.183580
  14 C :    0.206838
  15 C :   -0.140911
  16 O :   -0.327215
  17 H :    0.145565
  18 H :    0.172404
  19 O :   -0.292846
  20 H :    0.251876
  21 N :   -0.075345
  22 H :    0.243154
  23 H :    0.242685
  24 H :    0.235167
Sum of atomic charges:    1.0000000

--------------------------------
MULLIKEN REDUCED ORBITAL CHARGES
--------------------------------
  0 N s       :     3.419259  s :     3.419259
      pz      :     1.060311  p :     3.692849
      px      :     1.319416
      py      :     1.313122
      dz2     :     0.015167  d :     0.058835
      dxz     :     0.014653
      dyz     :     0.016348
      dx2y2   :     0.005435
      dxy     :     0.007231
      f0      :     0.000716  f :     0.003884
      f+1     :     0.000650
      f-1     :     0.000774
      f+2     :     0.000241
      f-2     :     0.000502
      f+3     :     0.000454
      f-3     :     0.000548
  1 H s       :     0.735413  s :     0.735413
      pz      :     0.014656  p :     0.058986
      px      :     0.022652
      py      :     0.021678
      dz2     :     0.000774  d :     0.005220
      dxz     :     0.000921
      dyz     :     0.000713
      dx2y2   :     0.001846
      dxy     :     0.000966
  2 C s       :     3.160089  s :     3.160089
      pz      :     0.714921  p :     2.792279
      px      :     1.011867
      py      :     1.065492
      dz2     :     0.023878  d :     0.105102
      dxz     :     0.027920
      dyz     :     0.027366
      dx2y2   :     0.013941
      dxy     :     0.011998
      f0      :     0.002068  f :     0.007727
      f+1     :     0.002107
      f-1     :     0.001763
      f+2     :     0.000277
      f-2     :     0.000457
      f+3     :     0.000313
      f-3     :     0.000742
  3 C s       :     3.066382  s :     3.066382
      pz      :     0.779736  p :     2.355859
      px      :     0.809582
      py      :     0.766541
      dz2     :     0.051694  d :     0.269177
      dxz     :     0.099789
      dyz     :     0.074356
      dx2y2   :     0.022493
      dxy     :     0.020845
      f0      :     0.003806  f :     0.023393
      f+1     :     0.007742
      f-1     :     0.004608
      f+2     :     0.002219
      f-2     :     0.002288
      f+3     :     0.001627
      f-3     :     0.001103
  4 H s       :     0.816833  s :     0.816833
      pz      :     0.007765  p :     0.032675
      px      :     0.008534
      py      :     0.016376
      dz2     :     0.000425  d :     0.002040
      dxz     :     0.000078
      dyz     :     0.000561
      dx2y2   :     0.000270
      dxy     :     0.000706
  5 H s       :     0.829465  s :     0.829465
      pz      :     0.008863  p :     0.035757
      px      :     0.014940
      py      :     0.011954
      dz2     :     0.000357  d :     0.002141
      dxz     :     0.000547
      dyz     :     0.000236
      dx2y2   :     0.000605
      dxy     :     0.000396
  6 O s       :     3.799491  s :     3.799491
      pz      :     1.322404  p :     4.443014
      px      :     1.675202
      py      :     1.445407
      dz2     :     0.011841  d :     0.032776
      dxz     :     0.009111
      dyz     :     0.011302
      dx2y2   :     0.000321
      dxy     :     0.000200
      f0      :     0.000624  f :     0.001909
      f+1     :     0.000578
      f-1     :     0.000618
      f+2     :     0.000048
      f-2     :     0.000034
[...]
     53       0.045665  -0.000161   0.000052   0.041401   0.005521   0.002592
     54       0.536253   0.002720   0.000025  -0.607525  -0.007573  -0.000265
     55      -0.108150  -0.000626  -0.000005   0.136167   0.000123  -0.000686
     56       0.365376   0.001715   0.000073  -0.414888  -0.004053   0.000385
     57      -0.000001  -0.000013   0.000199  -0.000003   0.000012  -0.000013
     58      -0.000007  -0.000017   0.000244  -0.000003   0.000033  -0.000023
     59       0.000002   0.000009  -0.000099   0.000003   0.000005  -0.000016
     60       0.000021  -0.000059  -0.000533  -0.000014  -0.000204   0.000349
     61       0.000101  -0.000017  -0.000014  -0.000007  -0.000477   0.000475
     62       0.000073  -0.000056  -0.000653  -0.000024  -0.000307   0.000385
     63      -0.003908   0.000074  -0.000212  -0.000660   0.058940   0.001051
     64       0.000300  -0.000016   0.000103  -0.001601   0.014467   0.076299
     65      -0.002038   0.000060  -0.000168   0.000622  -0.013579   0.023520
     66       0.049248  -0.001184   0.003436  -0.012263  -0.027208   0.028509
     67      -0.022420   0.000592  -0.001554   0.007473   0.018652  -0.001009
     68       0.037983  -0.000809   0.002185  -0.017501  -0.030358   0.021572
     69       0.004554  -0.000032  -0.000312   0.014023  -0.665627  -0.321129
     70       0.003417   0.000042  -0.000273   0.013806  -0.601560  -0.273686
     71       0.001659   0.000051  -0.000046   0.007034   0.043407   0.023918
     72      -0.001221  -0.000019  -0.000113   0.000553  -0.123136   0.271916
     73       0.010323  -0.000137   0.000430  -0.002318   0.375949  -0.779413
     74      -0.000748  -0.000044   0.000209  -0.002297   0.174459  -0.363570
                 72         73         74    
      0       0.000272   0.042826   0.000087
      1      -0.000327  -0.049745   0.000102
      2      -0.000325  -0.034033   0.000238
      3      -0.004265  -0.582152   0.000833
      4       0.004969   0.665062  -0.001109
      5       0.003391   0.461604  -0.000870
      6      -0.000008   0.000541   0.000195
      7      -0.000006  -0.000218   0.000442
      8       0.000048   0.001491  -0.000025
      9       0.000063   0.000060  -0.001994
     10       0.000053   0.000069  -0.001877
     11       0.000000   0.000164  -0.000082
     12      -0.000095  -0.003719   0.000593
     13       0.000138   0.006672  -0.001267
     14      -0.000127  -0.003614   0.000569
     15      -0.000006  -0.006011   0.000009
     16      -0.000060   0.000388  -0.000196
     17       0.000023   0.004958   0.000488
     18      -0.000014   0.000015   0.000481
     19      -0.000016   0.000011   0.000011
     20      -0.000005   0.000024  -0.000810
     21       0.000090   0.000081  -0.000044
     22      -0.000117   0.000355   0.000083
     23      -0.000126  -0.001504  -0.000108
     24      -0.000994   0.000151  -0.000021
     25       0.000191  -0.000179   0.000028
     26      -0.001046   0.000085  -0.000008
     27      -0.000079  -0.000790   0.000061
     28       0.000133   0.001156  -0.000028
     29      -0.000044   0.000313   0.000048
     30      -0.037854   0.000275  -0.000009
     31      -0.062623   0.000436  -0.000071
     32      -0.001302  -0.000001   0.000021
     33       0.006123  -0.001446   0.000092
     34      -0.000537   0.000972  -0.000043
     35       0.000526   0.000396  -0.000005
     36       0.002605  -0.000341  -0.000043
     37       0.009955   0.000613  -0.000163
     38       0.001264   0.000396  -0.000004
     39       0.502436  -0.003787   0.000532
     40       0.860403  -0.006344   0.000865
     41       0.040427  -0.000044  -0.000091
     42       0.001056   0.000045  -0.000048
     43      -0.001392  -0.000001   0.000006
     44      -0.000868   0.000051  -0.000011
     45      -0.000314  -0.000005   0.000004
     46      -0.000227   0.000000   0.000002
     47       0.000232   0.000019  -0.000007
     48       0.000781  -0.000032   0.000017
     49       0.000720  -0.000009  -0.000001
     50      -0.000088  -0.000026   0.000007
     51       0.005496  -0.000026  -0.000004
     52       0.004267  -0.000103   0.000038
     53      -0.000837   0.000039  -0.000012
     54       0.001242  -0.000012   0.000010
     55      -0.000212  -0.000004  -0.000005
     56      -0.000180   0.000053  -0.000018
     57       0.000003  -0.000029  -0.030214
     58       0.000019  -0.000078  -0.043328
     59       0.000047  -0.000038  -0.031341
     60      -0.000477   0.000494   0.490658
     61      -0.000624   0.001271   0.704776
     62      -0.000681   0.001111   0.508679
     63      -0.000083  -0.000392   0.000104
     64      -0.000281   0.000248  -0.000082
     65      -0.000038  -0.000106   0.000031
     66      -0.000386   0.004591  -0.001420
     67       0.000368  -0.002844   0.000856
     68       0.000446   0.002660  -0.000788
     69       0.001699   0.001085  -0.000184
     70       0.001860   0.000763  -0.000063
     71       0.000109  -0.000047  -0.000005
     72      -0.000668   0.000731  -0.000199
     73       0.002392  -0.002151   0.000667
     74       0.001190  -0.001082   0.000303


-----------
IR SPECTRUM
-----------

 Mode   freq       eps      Int      T**2         TX        TY        TZ
       cm**-1   L/(mol*cm) km/mol    a.u.
----------------------------------------------------------------------------
  6:     27.32   0.000999    5.05  0.011407  (-0.084427  0.038061 -0.053206)
  7:     39.43   0.000354    1.79  0.002799  (-0.029259 -0.006436 -0.043610)
  8:     52.96   0.001322    6.68  0.007790  ( 0.032411  0.053676 -0.062115)
  9:     69.15   0.000720    3.64  0.003249  ( 0.055529  0.012294  0.003786)
 10:     82.94   0.001335    6.75  0.005022  (-0.062206 -0.020394 -0.027145)
 11:    122.83   0.006237   31.52  0.015846  (-0.006770  0.093495 -0.084017)
 12:    161.45   0.004657   23.53  0.009001  ( 0.078274  0.006776  0.053177)
 13:    243.02   0.006596   33.33  0.008469  ( 0.075801 -0.051967  0.004802)
 14:    264.26   0.001124    5.68  0.001328  (-0.032319 -0.016820 -0.000549)
 15:    277.22   0.009467   47.84  0.010657  ( 0.048817 -0.046298 -0.078297)
 16:    295.03   0.000993    5.02  0.001051  ( 0.012856 -0.004872 -0.029354)
 17:    337.22   0.000681    3.44  0.000630  (-0.007715 -0.000793 -0.023875)
 18:    349.59   0.000995    5.03  0.000888  ( 0.012553 -0.023909  0.012611)
 19:    407.57   0.008915   45.05  0.006826  (-0.063210  0.045664 -0.027297)
 20:    439.22   0.004828   24.40  0.003430  (-0.038890  0.024571 -0.036253)
 21:    502.27   0.005377   27.17  0.003341  (-0.009528  0.056740  0.005516)
 22:    514.74   0.010732   54.23  0.006506  (-0.066018 -0.043654 -0.015559)
 23:    553.66   0.003966   20.04  0.002236  ( 0.038691  0.027028  0.002858)
 24:    583.99   0.004711   23.81  0.002517  (-0.017154 -0.026135  0.039242)
 25:    596.70   0.005088   25.71  0.002661  ( 0.008900  0.041326  0.029561)
 26:    640.07   0.026105  131.92  0.012727  (-0.021945 -0.071306  0.084624)
 27:    684.88   0.015822   79.96  0.007209  ( 0.079887 -0.023550 -0.016518)
 28:    699.72   0.005874   29.68  0.002620  (-0.022868  0.009322 -0.044830)
 29:    722.15   0.003091   15.62  0.001336  (-0.031719  0.018008  0.002322)
 30:    780.14   0.002007   10.14  0.000803  (-0.003058  0.001144 -0.028143)
 31:    873.28   0.001639    8.28  0.000586  ( 0.011428  0.000966 -0.021308)
 32:    878.82   0.001822    9.21  0.000647  ( 0.008343 -0.023893 -0.002559)
 33:    902.16   0.001749    8.84  0.000605  (-0.023415  0.004686  0.005889)
 34:    911.48   0.003038   15.35  0.001040  (-0.018050  0.001441 -0.026687)
 35:    981.64   0.001189    6.01  0.000378  ( 0.016868 -0.004632 -0.008488)
 36:   1053.64   0.003268   16.52  0.000968  (-0.012720  0.025496 -0.012493)
 37:   1056.20   0.001142    5.77  0.000337  (-0.017693  0.004301  0.002405)
 38:   1075.45   0.002063   10.42  0.000599  (-0.023643 -0.004845 -0.004005)
 39:   1108.45   0.001143    5.77  0.000322  (-0.013251 -0.001066  0.012041)
 40:   1137.59   0.011807   59.67  0.003239  ( 0.031203 -0.046599  0.009686)
 41:   1154.46   0.003194   16.14  0.000863  ( 0.022735 -0.007864  0.016874)
 42:   1201.31   0.040764  206.00  0.010589  ( 0.090613  0.035346 -0.033601)
 43:   1278.19   0.004239   21.42  0.001035  ( 0.017011 -0.019972  0.018619)
 44:   1287.78   0.004575   23.12  0.001109  (-0.018541  0.002405 -0.027551)
 45:   1301.31   0.007789   39.36  0.001868  (-0.031821  0.028535 -0.006414)
 46:   1312.08   0.006407   32.38  0.001524  (-0.002477  0.003331  0.038814)
 47:   1335.89   0.003395   17.15  0.000793  ( 0.023781 -0.006768  0.013477)
 48:   1372.62   0.004682   23.66  0.001064  (-0.029295 -0.007544 -0.012218)
 49:   1395.18   0.004576   23.12  0.001023  (-0.010943  0.029478  0.005895)
 50:   1406.23   0.012292   62.12  0.002728  ( 0.035623  0.022806 -0.030638)
 51:   1422.52   0.000309    1.56  0.000068  ( 0.003953 -0.004567 -0.005599)
 52:   1469.62   0.002367   11.96  0.000503  ( 0.021937 -0.003852  0.002553)
 53:   1475.20   0.003281   16.58  0.000694  ( 0.006172  0.017046  0.019118)
 54:   1504.00   0.002562   12.95  0.000532  (-0.000892  0.019387 -0.012448)
 55:   1536.16   0.026623  134.54  0.005408  (-0.049674  0.027503  0.046738)
 56:   1569.99   0.038996  197.07  0.007751  ( 0.085081 -0.022635  0.000231)
 57:   1605.25   0.042267  213.60  0.008217  (-0.027622  0.035827 -0.078550)
 58:   1623.91   0.019776   99.94  0.003800  (-0.004370  0.059313 -0.016223)
 59:   1682.55   0.030366  153.46  0.005632  (-0.050821  0.054640 -0.007979)
 60:   1730.36   0.052472  265.17  0.009463  ( 0.051507 -0.080003  0.020237)
 61:   1818.96   0.045378  229.32  0.007785  ( 0.076445  0.041722  0.014167)
 62:   1879.66   0.066177  334.43  0.010987  (-0.031200  0.022496  0.097506)
 63:   3060.37   0.154954  783.08  0.015801  (-0.093708  0.067277 -0.049932)
 64:   3117.98   0.002563   12.95  0.000257  ( 0.011403 -0.005392  0.009872)
 65:   3122.57   0.000391    1.98  0.000039  ( 0.000109  0.000257  0.006247)
 66:   3132.84   0.001288    6.51  0.000128  ( 0.010868 -0.002151  0.002352)
 67:   3172.10   0.000190    0.96  0.000019  (-0.002964 -0.002484 -0.001937)
 68:   3178.95   0.000132    0.67  0.000013  (-0.000988 -0.003154  0.001426)
 69:   3202.96   0.000198    1.00  0.000019  (-0.001622  0.003014 -0.002748)
 70:   3473.69   0.017264   87.25  0.001551  (-0.038737 -0.002116  0.006777)
 71:   3554.94   0.021363  107.96  0.001875  ( 0.004455 -0.041450 -0.011721)
 72:   3659.90   0.008711   44.02  0.000743  ( 0.019013  0.019241 -0.003325)
 73:   3674.13   0.014981   75.71  0.001272  (-0.021648  0.027731  0.005898)
 74:   3801.29   0.022206  112.22  0.001823  ( 0.029343  0.028246  0.012811)

* The epsilon (eps) is given for a Dirac delta lineshape.
** The dipole moment derivative (T) already includes vibrational overlap.

The first frequency considered to be a vibration is 6
The total number of vibrations considered is 69


--------------------------
THERMOCHEMISTRY AT 298.15K
--------------------------

Temperature         ... 298.15 K
Pressure            ... 1.00 atm
Total Mass          ... 190.18 AMU

Throughout the following assumptions are being made:
  (1) The electronic state is orbitally nondegenerate
  (2) There are no thermally accessible electronically excited states
  (3) Hindered rotations indicated by low frequency modes are not
      treated as such but are treated as vibrations and this may
      cause some error
  (4) All equations used are the standard statistical mechanics
      equations for an ideal gas
  (5) All vibrations are strictly harmonic

freq.      27.32  E(vib)   ...       0.55 
freq.      39.43  E(vib)   ...       0.54 
freq.      52.96  E(vib)   ...       0.52 
freq.      69.15  E(vib)   ...       0.50 
freq.      82.94  E(vib)   ...       0.48 
freq.     122.83  E(vib)   ...       0.43 
freq.     161.45  E(vib)   ...       0.39 
freq.     243.02  E(vib)   ...       0.31 
freq.     264.26  E(vib)   ...       0.29 
freq.     277.22  E(vib)   ...       0.28 
freq.     295.03  E(vib)   ...       0.27 
freq.     337.22  E(vib)   ...       0.24 
freq.     349.59  E(vib)   ...       0.23 
freq.     407.57  E(vib)   ...       0.19 
freq.     439.22  E(vib)   ...       0.17 
freq.     502.27  E(vib)   ...       0.14 
freq.     514.74  E(vib)   ...       0.13 
freq.     553.66  E(vib)   ...       0.12 
freq.     583.99  E(vib)   ...       0.11 
freq.     596.70  E(vib)   ...       0.10 
freq.     640.07  E(vib)   ...       0.09 
freq.     684.88  E(vib)   ...       0.07 
freq.     699.72  E(vib)   ...       0.07 
freq.     722.15  E(vib)   ...       0.07 
freq.     780.14  E(vib)   ...       0.05 
freq.     873.28  E(vib)   ...       0.04 
freq.     878.82  E(vib)   ...       0.04 
freq.     902.16  E(vib)   ...       0.03 
freq.     911.48  E(vib)   ...       0.03 
freq.     981.64  E(vib)   ...       0.02 
freq.    1053.64  E(vib)   ...       0.02 
freq.    1056.20  E(vib)   ...       0.02 
freq.    1075.45  E(vib)   ...       0.02 
freq.    1108.45  E(vib)   ...       0.02 
freq.    1137.59  E(vib)   ...       0.01 
freq.    1154.46  E(vib)   ...       0.01 
freq.    1201.31  E(vib)   ...       0.01 
freq.    1278.19  E(vib)   ...       0.01 
freq.    1287.78  E(vib)   ...       0.01 
freq.    1301.31  E(vib)   ...       0.01 
freq.    1312.08  E(vib)   ...       0.01 
freq.    1335.89  E(vib)   ...       0.01 
freq.    1372.62  E(vib)   ...       0.01 
freq.    1395.18  E(vib)   ...       0.00 
freq.    1406.23  E(vib)   ...       0.00 
freq.    1422.52  E(vib)   ...       0.00 
freq.    1469.62  E(vib)   ...       0.00 
freq.    1475.20  E(vib)   ...       0.00 
freq.    1504.00  E(vib)   ...       0.00 
freq.    1536.16  E(vib)   ...       0.00 
freq.    1569.99  E(vib)   ...       0.00 
freq.    1605.25  E(vib)   ...       0.00 
freq.    1623.91  E(vib)   ...       0.00 
freq.    1682.55  E(vib)   ...       0.00 
freq.    1730.36  E(vib)   ...       0.00 
freq.    1818.96  E(vib)   ...       0.00 
freq.    1879.66  E(vib)   ...       0.00 
freq.    3060.37  E(vib)   ...       0.00 
freq.    3117.98  E(vib)   ...       0.00 
freq.    3122.57  E(vib)   ...       0.00 
freq.    3132.84  E(vib)   ...       0.00 
freq.    3172.10  E(vib)   ...       0.00 
freq.    3178.95  E(vib)   ...       0.00 
freq.    3202.96  E(vib)   ...       0.00 
freq.    3473.69  E(vib)   ...       0.00 
freq.    3554.94  E(vib)   ...       0.00 
freq.    3659.90  E(vib)   ...       0.00 
freq.    3674.13  E(vib)   ...       0.00 
freq.    3801.29  E(vib)   ...       0.00 

------------
INNER ENERGY
------------

The inner energy is: U= E(el) + E(ZPE) + E(vib) + E(rot) + E(trans)
    E(el)   - is the total energy from the electronic structure calculation
              = E(kin-el) + E(nuc-el) + E(el-el) + E(nuc-nuc)
    E(ZPE)  - the the zero temperature vibrational energy from the frequency calculation
    E(vib)  - the the finite temperature correction to E(ZPE) due to population
              of excited vibrational states
    E(rot)  - is the rotational thermal energy
    E(trans)- is the translational thermal energy

Summary of contributions to the inner energy U:
Electronic energy                ...   -701.34407172 Eh
Zero point energy                ...      0.20945745 Eh     131.44 kcal/mol
Thermal vibrational correction   ...      0.01066712 Eh       6.69 kcal/mol
Thermal rotational correction    ...      0.00141627 Eh       0.89 kcal/mol
Thermal translational correction ...      0.00141627 Eh       0.89 kcal/mol
-----------------------------------------------------------------------
Total thermal energy                   -701.12111461 Eh


Summary of corrections to the electronic energy:
(perhaps to be used in another calculation)
Total thermal correction                  0.01349966 Eh       8.47 kcal/mol
Non-thermal (ZPE) correction              0.20945745 Eh     131.44 kcal/mol
-----------------------------------------------------------------------
Total correction                          0.22295711 Eh     139.91 kcal/mol


--------
ENTHALPY
--------

The enthalpy is H = U + kB*T
                kB is Boltzmann's constant
Total free energy                 ...   -701.12111461 Eh 
Thermal Enthalpy correction       ...      0.00094421 Eh       0.59 kcal/mol
-----------------------------------------------------------------------
Total Enthalpy                    ...   -701.12017040 Eh


Note: Only C1 symmetry has been detected, increase convergence thresholds 
      if your molecule has a higher symmetry. Symmetry factor of 1.0 is   
      used for the rotational entropy correction. 
 

Note: Rotational entropy computed according to Herzberg 
Infrared and Raman Spectra, Chapter V,1, Van Nostrand Reinhold, 1945 
Point Group:  C1, Symmetry Number:   1  
Rotational constants in cm-1:     0.049999     0.014037     0.012640 

Vibrational entropy computed according to the QRRHO of S. Grimme
Chem.Eur.J. 2012 18 9955


-------
ENTROPY
-------

The entropy contributions are T*S = T*(S(el)+S(vib)+S(rot)+S(trans))
     S(el)   - electronic entropy
     S(vib)  - vibrational entropy
     S(rot)  - rotational entropy
     S(trans)- translational entropy
The entropies will be listed as multiplied by the temperature to get
units of energy

Electronic entropy                ...      0.00000000 Eh      0.00 kcal/mol
Vibrational entropy               ...      0.01898052 Eh     11.91 kcal/mol
Rotational entropy                ...      0.01500248 Eh      9.41 kcal/mol
Translational entropy             ...      0.01978162 Eh     12.41 kcal/mol
-----------------------------------------------------------------------
Final entropy term                ...      0.05376461 Eh     33.74 kcal/mol

In case the symmetry of your molecule has not been determined correctly
or in case you have a reason to use a different symmetry number we print 
out the resulting rotational entropy values for sn=1,12 :
 --------------------------------------------------------
|  sn= 1 | S(rot)=       0.01500248 Eh      9.41 kcal/mol|
|  sn= 2 | S(rot)=       0.01434802 Eh      9.00 kcal/mol|
|  sn= 3 | S(rot)=       0.01396519 Eh      8.76 kcal/mol|
|  sn= 4 | S(rot)=       0.01369357 Eh      8.59 kcal/mol|
|  sn= 5 | S(rot)=       0.01348288 Eh      8.46 kcal/mol|
|  sn= 6 | S(rot)=       0.01331074 Eh      8.35 kcal/mol|
|  sn= 7 | S(rot)=       0.01316519 Eh      8.26 kcal/mol|
|  sn= 8 | S(rot)=       0.01303911 Eh      8.18 kcal/mol|
|  sn= 9 | S(rot)=       0.01292790 Eh      8.11 kcal/mol|
|  sn=10 | S(rot)=       0.01282842 Eh      8.05 kcal/mol|
|  sn=11 | S(rot)=       0.01273843 Eh      7.99 kcal/mol|
|  sn=12 | S(rot)=       0.01265628 Eh      7.94 kcal/mol|
 --------------------------------------------------------


-------------------
GIBBS FREE ENERGY
-------------------

The Gibbs free energy is G = H - T*S

Total enthalpy                    ...   -701.12017040 Eh 
Total entropy correction          ...     -0.05376461 Eh    -33.74 kcal/mol
-----------------------------------------------------------------------
Final Gibbs free energy         ...   -701.17393502 Eh

For completeness - the Gibbs free energy minus the electronic energy
G-E(el)                           ...      0.17013670 Eh    106.76 kcal/mol


Timings for individual modules:

Sum of individual times         ...     8555.760 sec (= 142.596 min)
GTO integral calculation        ...       25.625 sec (=   0.427 min)   0.3 %
SCF iterations                  ...     2945.559 sec (=  49.093 min)  34.4 %
SCF Gradient evaluation         ...      576.833 sec (=   9.614 min)   6.7 %
Geometry relaxation             ...        1.346 sec (=   0.022 min)   0.0 %
Analytical frequency calculation...     4498.183 sec (=  74.970 min)  52.6 %
CHELPG charge generation        ...      508.216 sec (=   8.470 min)   5.9 %
                             ****ORCA TERMINATED NORMALLY****
TOTAL RUN TIME: 0 days 2 hours 23 minutes 11 seconds 380 msec
