
Lmod is automatically replacing "intel/2020.1.217" with "gcc/10.3.0".


Due to MODULEPATH changes, the following have been reloaded:
  1) blis/0.8.1     2) flexiblas/3.0.4

The following have been reloaded with a version change:
  1) gcccore/.9.3.0 => gcccore/.10.3.0        3) openmpi/4.0.3 => openmpi/4.1.1
  2) libfabric/1.10.1 => libfabric/1.12.1     4) ucx/1.8.0 => ucx/1.9.0

To execute ORCA, run: 
   ${EBROOTORCA}/orca orca.inp > orca.out

                                 *****************
                                 * O   R   C   A *
                                 *****************

                                            #,                                       
                                            ###                                      
                                            ####                                     
                                            #####                                    
                                            ######                                   
                                           ########,                                 
                                     ,,################,,,,,                         
                               ,,#################################,,                 
                          ,,##########################################,,             
                       ,#########################################, ''#####,          
                    ,#############################################,,   '####,        
                  ,##################################################,,,,####,       
                ,###########''''           ''''###############################       
              ,#####''   ,,,,##########,,,,          '''####'''          '####       
            ,##' ,,,,###########################,,,                        '##       
           ' ,,###''''                  '''############,,,                           
         ,,##''                                '''############,,,,        ,,,,,,###''
      ,#''                                            '''#######################'''  
     '                                                          ''''####''''         
             ,#######,   #######,   ,#######,      ##                                
            ,#'     '#,  ##    ##  ,#'     '#,    #''#        ######   ,####,        
            ##       ##  ##   ,#'  ##            #'  '#       #        #'  '#        
            ##       ##  #######   ##           ,######,      #####,   #    #        
            '#,     ,#'  ##    ##  '#,     ,#' ,#      #,         ##   #,  ,#        
             '#######'   ##     ##  '#######'  #'      '#     #####' # '####'        



                  #######################################################
                  #                        -***-                        #
                  #          Department of theory and spectroscopy      #
                  #    Directorship and core code : Frank Neese         #
                  #        Max Planck Institute fuer Kohlenforschung    #
                  #                Kaiser Wilhelm Platz 1               #
                  #                 D-45470 Muelheim/Ruhr               #
                  #                      Germany                        #
                  #                                                     #
                  #                  All rights reserved                #
                  #                        -***-                        #
                  #######################################################


                         Program Version 5.0.2 -  RELEASE  -


 With contributions from (in alphabetic order):
   Daniel Aravena         : Magnetic Suceptibility
   Michael Atanasov       : Ab Initio Ligand Field Theory (pilot matlab implementation)
   Alexander A. Auer      : GIAO ZORA, VPT2 properties, NMR spectrum
   Ute Becker             : Parallelization
   Giovanni Bistoni       : ED, misc. LED, open-shell LED, HFLD
   Martin Brehm           : Molecular dynamics
   Dmytro Bykov           : SCF Hessian
   Vijay G. Chilkuri      : MRCI spin determinant printing, contributions to CSF-ICE
   Dipayan Datta          : RHF DLPNO-CCSD density
   Achintya Kumar Dutta   : EOM-CC, STEOM-CC
   Dmitry Ganyushin       : Spin-Orbit,Spin-Spin,Magnetic field MRCI
   Miquel Garcia          : C-PCM and meta-GGA Hessian, CC/C-PCM, Gaussian charge scheme
   Yang Guo               : DLPNO-NEVPT2, F12-NEVPT2, CIM, IAO-localization
   Andreas Hansen         : Spin unrestricted coupled pair/coupled cluster methods
   Benjamin Helmich-Paris : MC-RPA, TRAH-SCF, COSX integrals
   Lee Huntington         : MR-EOM, pCC
   Robert Izsak           : Overlap fitted RIJCOSX, COSX-SCS-MP3, EOM
   Marcus Kettner         : VPT2
   Christian Kollmar      : KDIIS, OOCD, Brueckner-CCSD(T), CCSD density, CASPT2, CASPT2-K
   Simone Kossmann        : Meta GGA functionals, TD-DFT gradient, OOMP2, MP2 Hessian
   Martin Krupicka        : Initial AUTO-CI
   Lucas Lang             : DCDCAS
   Marvin Lechner         : AUTO-CI (C++ implementation), FIC-MRCC
   Dagmar Lenk            : GEPOL surface, SMD
   Dimitrios Liakos       : Extrapolation schemes; Compound Job, initial MDCI parallelization
   Dimitrios Manganas     : Further ROCIS development; embedding schemes
   Dimitrios Pantazis     : SARC Basis sets
   Anastasios Papadopoulos: AUTO-CI, single reference methods and gradients
   Taras Petrenko         : DFT Hessian,TD-DFT gradient, ASA, ECA, R-Raman, ABS, FL, XAS/XES, NRVS
   Peter Pinski           : DLPNO-MP2, DLPNO-MP2 Gradient
   Christoph Reimann      : Effective Core Potentials
   Marius Retegan         : Local ZFS, SOC
   Christoph Riplinger    : Optimizer, TS searches, QM/MM, DLPNO-CCSD(T), (RO)-DLPNO pert. Triples
   Tobias Risthaus        : Range-separated hybrids, TD-DFT gradient, RPA, STAB
   Michael Roemelt        : Original ROCIS implementation
   Masaaki Saitow         : Open-shell DLPNO-CCSD energy and density
   Barbara Sandhoefer     : DKH picture change effects
   Avijit Sen             : IP-ROCIS
   Kantharuban Sivalingam : CASSCF convergence, NEVPT2, FIC-MRCI
   Bernardo de Souza      : ESD, SOC TD-DFT
   Georgi Stoychev        : AutoAux, RI-MP2 NMR, DLPNO-MP2 response
   Willem Van den Heuvel  : Paramagnetic NMR
   Boris Wezisla          : Elementary symmetry handling
   Frank Wennmohs         : Technical directorship


 We gratefully acknowledge several colleagues who have allowed us to
 interface, adapt or use parts of their codes:
   Stefan Grimme, W. Hujo, H. Kruse, P. Pracht,  : VdW corrections, initial TS optimization,
                  C. Bannwarth, S. Ehlert          DFT functionals, gCP, sTDA/sTD-DF
   Ed Valeev, F. Pavosevic, A. Kumar             : LibInt (2-el integral package), F12 methods
   Garnet Chan, S. Sharma, J. Yang, R. Olivares  : DMRG
   Ulf Ekstrom                                   : XCFun DFT Library
   Mihaly Kallay                                 : mrcc  (arbitrary order and MRCC methods)
   Jiri Pittner, Ondrej Demel                    : Mk-CCSD
   Frank Weinhold                                : gennbo (NPA and NBO analysis)
   Christopher J. Cramer and Donald G. Truhlar   : smd solvation model
   Lars Goerigk                                  : TD-DFT with DH, B97 family of functionals
   V. Asgeirsson, H. Jonsson                     : NEB implementation
   FAccTs GmbH                                   : IRC, NEB, NEB-TS, DLPNO-Multilevel, CI-OPT
                                                   MM, QMMM, 2- and 3-layer-ONIOM, Crystal-QMMM,
                                                   LR-CPCM, SF, NACMEs, symmetry and pop. for TD-DFT,
                                                   nearIR, NL-DFT gradient (VV10), updates on ESD,
                                                   ML-optimized integration grids
   S Lehtola, MJT Oliveira, MAL Marques          : LibXC Library
   Liviu Ungur et al                             : ANISO software


 Your calculation uses the libint2 library for the computation of 2-el integrals
 For citations please refer to: http://libint.valeyev.net

 Your ORCA version has been built with support for libXC version: 5.1.0
 For citations please refer to: https://tddft.org/programs/libxc/

 This ORCA versions uses:
   CBLAS   interface :  Fast vector & matrix operations
   LAPACKE interface :  Fast linear algebra routines
   SCALAPACK package :  Parallel linear algebra routines
   Shared memory     :  Shared parallel matrices
   BLAS/LAPACK       :  OpenBLAS 0.3.15  USE64BITINT DYNAMIC_ARCH NO_AFFINITY Zen SINGLE_THREADED
        Core in use  :  Zen
   Copyright (c) 2011-2014, The OpenBLAS Project


Your calculation utilizes the atom-pairwise dispersion correction
with the Becke-Johnson damping scheme (D3BJ)
Cite in your paper:
S.Grimme, S.Ehrlich, L.Goerigk, J Comput Chem, (2011), 32, 1456–1465 
S.Grimme, J.Antony, S.Ehrlich and H.Krieg, J.Chem.Phys., 132, (2010), 154104 
   

================================================================================

----- Orbital basis set information -----
Your calculation utilizes the basis: def2-TZVPP
   F. Weigend and R. Ahlrichs, Phys. Chem. Chem. Phys. 7, 3297 (2005).

----- AuxJ basis set information -----
Your calculation utilizes the auxiliary basis: def2/J
   F. Weigend, Phys. Chem. Chem. Phys. 8, 1057 (2006).

================================================================================
                                        WARNINGS
                       Please study these warnings very carefully!
================================================================================


WARNING: Geometry Optimization
  ===> : Switching off AutoStart
         For restart on a previous wavefunction, please use MOREAD

INFO   : the flag for use of the SHARK integral package has been found!

================================================================================
                                       INPUT FILE
================================================================================
NAME = GGG-H_tt_010_OptFreq.inp
|  1> # GGG-H_tt_010 (old 045)
|  2> ! wB97X-D3BJ Opt Freq def2-TZVPP def2/J RIJCOSX VeryTightSCF
|  3> ! PAL8 defgrid3 VeryTightOpt
|  4> 
|  5> %maxcore 4096
|  6> 
|  7> %geom
|  8>   MaxIter 300
|  9>   # MaxStep 0.1
| 10>   Calc_Hess true
| 11>   Recalc_Hess 10
| 12> end
| 13> 
| 14> %chelpg
| 15>   grid 0.1
| 16>   rmax 3.0
| 17> end
| 18> 
| 19> * xyz 1 1 
| 20>  N   -1.011870   +1.838844   +3.013512
| 21>  H   -1.648745   +2.536229   +2.626257
| 22>  C   -0.638850   +1.910663   +4.432803
| 23>  C   -0.751708   +0.549490   +5.151873
| 24>  H   +0.401613   +2.251970   +4.549620
| 25>  H   -1.307545   +2.635086   +4.925496
| 26>  O   -0.004364   +0.226580   +6.037046
| 27>  C   -0.316413   +1.036403   +2.176122
| 28>  C   -0.632141   +1.126690   +0.661446
| 29>  O   +0.544594   +0.254801   +2.615726
| 30>  N   +0.000000   +0.000000   +0.000000
| 31>  H   -0.202119   +2.061775   +0.264814
| 32>  H   -1.716821   +1.131043   +0.469257
| 33>  H   -0.465303   -0.900768   +0.111272
| 34>  C   +1.369364   +0.000000   +0.000000
| 35>  C   +2.062433   -1.348248   +0.262471
| 36>  O   +2.060034   +1.011322   +0.000000
| 37>  H   +2.860266   -1.555382   -0.465692
| 38>  H   +1.389035   -2.212890   +0.354786
| 39>  O   -1.774514   -0.242837   +4.745123
| 40>  H   -2.278835   +0.212468   +4.041952
| 41>  N   +2.684025   -1.085959   +1.616477
| 42>  H   +3.136391   -1.908187   +2.042869
| 43>  H   +3.375677   -0.322082   +1.509917
| 44>  H   +1.911394   -0.690319   +2.234250
| 45> *
| 46> 
| 47>                          ****END OF INPUT****
================================================================================

                       *****************************
                       * Geometry Optimization Run *
                       *****************************

Geometry optimization settings:
Update method            Update   .... BFGS
Choice of coordinates    CoordSys .... Z-matrix Internals
Initial Hessian          InHess   .... Almoef's Model

Convergence Tolerances:
Energy Change            TolE     ....  2.0000e-07 Eh
Max. Gradient            TolMAXG  ....  3.0000e-05 Eh/bohr
RMS Gradient             TolRMSG  ....  8.0000e-06 Eh/bohr
Max. Displacement        TolMAXD  ....  2.0000e-04 bohr
RMS Displacement         TolRMSD  ....  1.0000e-04 bohr
Strict Convergence                ....  False
------------------------------------------------------------------------------
                        ORCA OPTIMIZATION COORDINATE SETUP
------------------------------------------------------------------------------

The optimization will be done in new redundant internal coordinates
Making redundant internal coordinates   ...  (new redundants) done
Evaluating the initial hessian          ...  (Is done on the fly) done
Evaluating the coordinates              ...  done
Calculating the B-matrix                .... done
Calculating the G-matrix                .... done
Diagonalizing the G-matrix              .... done
Small eigenvalue found = 8.365e-03
Small eigenvalue found = 1.913e-02
Small eigenvalue found = 2.037e-02
Small eigenvalue found = 2.884e-02
The first mode is                       ....   45
The number of degrees of freedom        ....   69

    -----------------------------------------------------------------
                    Redundant Internal Coordinates


    -----------------------------------------------------------------
         Definition                    Initial Value    d2E/dq (diagonal element)
    -----------------------------------------------------------------
      1. B(H   1,N   0)                  1.0207         0.000000   
      2. B(C   2,N   0)                  1.4692         0.000000   
      3. B(C   3,C   2)                  1.5436         0.000000   
      4. B(H   4,C   2)                  1.1012         0.000000   
      5. B(H   5,C   2)                  1.1021         0.000000   
      6. B(O   6,C   3)                  1.2026         0.000000   
      7. B(C   7,N   0)                  1.3523         0.000000   
      8. B(C   8,C   7)                  1.5499         0.000000   
      9. B(O   9,C   7)                  1.2432         0.000000   
     10. B(N  10,C   8)                  1.4514         0.000000   
     11. B(H  11,C   8)                  1.1030         0.000000   
     12. B(H  12,C   8)                  1.1016         0.000000   
     13. B(H  13,N  10)                  1.0199         0.000000   
     14. B(C  14,N  10)                  1.3694         0.000000   
     15. B(C  15,C  14)                  1.5385         0.000000   
     16. B(O  16,C  14)                  1.2247         0.000000   
     17. B(H  17,C  15)                  1.0998         0.000000   
     18. B(H  18,C  15)                  1.0998         0.000000   
     19. B(O  19,C   3)                  1.3562         0.000000   
     20. B(H  20,O  19)                  0.9778         0.000000   
     21. B(N  21,C  15)                  1.5128         0.000000   
     22. B(H  22,N  21)                  1.0308         0.000000   
     23. B(H  23,N  21)                  1.0360         0.000000   
     24. B(H  24,H  20)                  4.6520         0.000000   
     25. B(H  24,N  21)                  1.0654         0.000000   
     26. A(H   1,N   0,C   2)          119.4389         0.000000   
     27. A(C   2,N   0,C   7)          119.7758         0.000000   
     28. A(H   1,N   0,C   7)          119.4291         0.000000   
     29. A(C   3,C   2,H   5)          109.0876         0.000000   
     30. A(C   3,C   2,H   4)          107.0361         0.000000   
     31. A(N   0,C   2,H   4)          110.9466         0.000000   
     32. A(N   0,C   2,C   3)          112.8514         0.000000   
     33. A(N   0,C   2,H   5)          108.0549         0.000000   
     34. A(H   4,C   2,H   5)          108.7908         0.000000   
     35. A(O   6,C   3,O  19)          122.1766         0.000000   
     36. A(C   2,C   3,O  19)          115.5061         0.000000   
     37. A(C   2,C   3,O   6)          122.2910         0.000000   
     38. A(C   8,C   7,O   9)          121.5539         0.000000   
     39. A(N   0,C   7,O   9)          120.6820         0.000000   
     40. A(N   0,C   7,C   8)          117.7641         0.000000   
     41. A(C   7,C   8,H  11)          108.7472         0.000000   
     42. A(C   7,C   8,N  10)          108.1459         0.000000   
     43. A(H  11,C   8,H  12)          108.5296         0.000000   
     44. A(N  10,C   8,H  12)          110.6351         0.000000   
     45. A(C   7,C   8,H  12)          111.7972         0.000000   
     46. A(N  10,C   8,H  11)          108.9306         0.000000   
     47. A(H  13,N  10,C  14)          117.1427         0.000000   
     48. A(C   8,N  10,C  14)          115.8197         0.000000   
     49. A(C   8,N  10,H  13)          115.9232         0.000000   
     50. A(C  15,C  14,O  16)          118.0095         0.000000   
     51. A(N  10,C  14,O  16)          124.3306         0.000000   
     52. A(N  10,C  14,C  15)          116.7746         0.000000   
     53. A(H  17,C  15,H  18)          110.5891         0.000000   
     54. A(C  14,C  15,H  18)          115.3056         0.000000   
     55. A(C  14,C  15,H  17)          112.2639         0.000000   
     56. A(H  18,C  15,N  21)          108.2259         0.000000   
     57. A(H  17,C  15,N  21)          109.0966         0.000000   
     58. A(C  14,C  15,N  21)          100.7110         0.000000   
     59. A(C   3,O  19,H  20)          109.4275         0.000000   
     60. A(H  23,N  21,H  24)          105.6636         0.000000   
     61. A(H  22,N  21,H  24)          112.0003         0.000000   
     62. A(C  15,N  21,H  24)          106.5822         0.000000   
     63. A(H  22,N  21,H  23)          109.7380         0.000000   
     64. A(C  15,N  21,H  23)          108.0656         0.000000   
     65. A(C  15,N  21,H  22)          114.3472         0.000000   
     66. D(H   4,C   2,N   0,C   7)     59.3017         0.000000   
     67. D(H   5,C   2,N   0,C   7)    178.4816         0.000000   
     68. D(H   5,C   2,N   0,H   1)     11.8484         0.000000   
     69. D(H   4,C   2,N   0,H   1)   -107.3315         0.000000   
     70. D(C   3,C   2,N   0,H   1)    132.5532         0.000000   
     71. D(C   3,C   2,N   0,C   7)    -60.8135         0.000000   
     72. D(O   6,C   3,C   2,H   4)     23.9770         0.000000   
     73. D(O  19,C   3,C   2,H   5)     84.5971         0.000000   
     74. D(O  19,C   3,C   2,H   4)   -157.8525         0.000000   
     75. D(O   6,C   3,C   2,H   5)    -93.5735         0.000000   
     76. D(O  19,C   3,C   2,N   0)    -35.5166         0.000000   
     77. D(O   6,C   3,C   2,N   0)    146.3129         0.000000   
     78. D(O   9,C   7,N   0,H   1)    174.1247         0.000000   
     79. D(C   8,C   7,N   0,C   2)   -172.5721         0.000000   
     80. D(C   8,C   7,N   0,H   1)     -5.9376         0.000000   
     81. D(O   9,C   7,N   0,C   2)      7.4901         0.000000   
     82. D(H  12,C   8,C   7,O   9)    134.2213         0.000000   
     83. D(H  12,C   8,C   7,N   0)    -45.7159         0.000000   
     84. D(H  11,C   8,C   7,O   9)   -105.9656         0.000000   
     85. D(N  10,C   8,C   7,O   9)     12.1832         0.000000   
     86. D(N  10,C   8,C   7,N   0)   -167.7540         0.000000   
     87. D(H  11,C   8,C   7,N   0)     74.0972         0.000000   
     88. D(C  14,N  10,C   8,H  12)    170.6243         0.000000   
     89. D(C  14,N  10,C   8,H  11)     51.4050         0.000000   
     90. D(C  14,N  10,C   8,C   7)    -66.6265         0.000000   
     91. D(H  13,N  10,C   8,H  12)    -46.3710         0.000000   
     92. D(H  13,N  10,C   8,H  11)   -165.5903         0.000000   
     93. D(H  13,N  10,C   8,C   7)     76.3781         0.000000   
     94. D(O  16,C  14,N  10,C   8)    -30.4159         0.000000   
     95. D(C  15,C  14,N  10,H  13)     -3.9742         0.000000   
     96. D(C  15,C  14,N  10,C   8)    138.5678         0.000000   
     97. D(O  16,C  14,N  10,H  13)   -172.9579         0.000000   
     98. D(N  21,C  15,C  14,O  16)     57.8058         0.000000   
     99. D(N  21,C  15,C  14,N  10)   -111.8981         0.000000   
    100. D(H  18,C  15,C  14,O  16)    174.0073         0.000000   
    101. D(H  18,C  15,C  14,N  10)      4.3034         0.000000   
    102. D(H  17,C  15,C  14,O  16)    -58.1210         0.000000   
    103. D(H  17,C  15,C  14,N  10)    132.1752         0.000000   
    104. D(H  20,O  19,C   3,O   6)    177.9680         0.000000   
    105. D(H  20,O  19,C   3,C   2)     -0.2048         0.000000   
    106. D(H  24,N  21,C  15,H  18)    -71.4232         0.000000   
    107. D(H  24,N  21,C  15,H  17)    168.1921         0.000000   
    108. D(H  24,N  21,C  15,C  14)     49.9283         0.000000   
    109. D(H  23,N  21,C  15,H  18)    175.4079         0.000000   
    110. D(H  23,N  21,C  15,H  17)     55.0233         0.000000   
    111. D(H  23,N  21,C  15,C  14)    -63.2405         0.000000   
    112. D(H  22,N  21,C  15,H  18)     52.8936         0.000000   
    113. D(H  22,N  21,C  15,H  17)    -67.4911         0.000000   
    114. D(H  22,N  21,C  15,C  14)    174.2451         0.000000   
    -----------------------------------------------------------------

Number of atoms                         .... 25
Number of degrees of freedom            .... 114

         *************************************************************
         *                GEOMETRY OPTIMIZATION CYCLE   1            *
         *************************************************************
---------------------------------
CARTESIAN COORDINATES (ANGSTROEM)
---------------------------------
  N     -1.011870    1.838844    3.013512
  H     -1.648745    2.536229    2.626257
  C     -0.638850    1.910663    4.432803
  C     -0.751708    0.549490    5.151873
  H      0.401613    2.251970    4.549620
  H     -1.307545    2.635086    4.925496
  O     -0.004364    0.226580    6.037046
  C     -0.316413    1.036403    2.176122
  C     -0.632141    1.126690    0.661446
  O      0.544594    0.254801    2.615726
  N      0.000000    0.000000    0.000000
  H     -0.202119    2.061775    0.264814
  H     -1.716821    1.131043    0.469257
  H     -0.465303   -0.900768    0.111272
  C      1.369364    0.000000    0.000000
  C      2.062433   -1.348248    0.262471
  O      2.060034    1.011322    0.000000
  H      2.860266   -1.555382   -0.465692
  H      1.389035   -2.212890    0.354786
  O     -1.774514   -0.242837    4.745123
  H     -2.278835    0.212468    4.041952
  N      2.684025   -1.085959    1.616477
  H      3.136391   -1.908187    2.042869
  H      3.375677   -0.322082    1.509917
  H      1.911394   -0.690319    2.234250

----------------------------
CARTESIAN COORDINATES (A.U.)
----------------------------
  NO LB      ZA    FRAG     MASS         X           Y           Z
   0 N     7.0000    0    14.007   -1.912157    3.474912    5.694712
   1 H     1.0000    0     1.008   -3.115677    4.792778    4.962906
   2 C     6.0000    0    12.011   -1.207252    3.610630    8.376784
   3 C     6.0000    0    12.011   -1.420522    1.038386    9.735629
   4 H     1.0000    0     1.008    0.758939    4.255607    8.597536
   5 H     1.0000    0     1.008   -2.470902    4.979591    9.307839
   6 O     8.0000    0    15.999   -0.008247    0.428174   11.408364
   7 C     6.0000    0    12.011   -0.597934    1.958518    4.112275
   8 C     6.0000    0    12.011   -1.194573    2.129136    1.249952
   9 O     8.0000    0    15.999    1.029134    0.481504    4.943006
  10 N     7.0000    0    14.007    0.000000    0.000000    0.000000
  11 H     1.0000    0     1.008   -0.381950    3.896190    0.500426
  12 H     1.0000    0     1.008   -3.244322    2.137362    0.886767
  13 H     1.0000    0     1.008   -0.879295   -1.702205    0.210274
  14 C     6.0000    0    12.011    2.587723    0.000000    0.000000
  15 C     6.0000    0    12.011    3.897434   -2.547819    0.495998
  16 O     8.0000    0    15.999    3.892900    1.911122    0.000000
  17 H     1.0000    0     1.008    5.405119   -2.939246   -0.880030
  18 H     1.0000    0     1.008    2.624896   -4.181756    0.670448
  19 O     8.0000    0    15.999   -3.353345   -0.458895    8.966983
  20 H     1.0000    0     1.008   -4.306374    0.401506    7.638182
  21 N     7.0000    0    14.007    5.072072   -2.052165    3.054699
  22 H     1.0000    0     1.008    5.926920   -3.605951    3.860463
  23 H     1.0000    0     1.008    6.379105   -0.608647    2.853330
  24 H     1.0000    0     1.008    3.612011   -1.304514    4.222121

--------------------------------
INTERNAL COORDINATES (ANGSTROEM)
--------------------------------
 N      0   0   0     0.000000000000     0.00000000     0.00000000
 H      1   0   0     1.020745824814     0.00000000     0.00000000
 C      1   2   0     1.469247709490   119.43889601     0.00000000
 C      3   1   2     1.543564228982   112.85139625   132.55322956
 H      3   1   2     1.101226558936   110.94663671   252.66851550
 H      3   1   2     1.102128884570   108.05485248    11.84837349
 O      4   3   1     1.202632596583   122.29101706   146.31287836
 C      1   2   3     1.352329105444   119.42907587   193.32005521
 C      8   1   2     1.549864283519   117.76406943   354.06243206
 O      8   1   2     1.243175939788   120.68203747   174.12465913
 N      9   8   1     1.451393609913   108.14585918   192.24601232
 H      9   8   1     1.103004905308   108.74722854    74.09723182
 H      9   8   1     1.101583525081   111.79720914   314.28408713
 H     11   9   8     1.019936924333   115.92315100    76.37809793
 C     11   9   8     1.369364000000   115.81970494   293.37345649
 C     15  11   9     1.538508477099   116.77455539   138.56777681
 O     15  11   9     1.224662090776   124.33064501   329.58407932
 H     16  15  11     1.099846964088   112.26387651   132.17515048
 H     16  15  11     1.099814854325   115.30558995     4.30343264
 O      4   3   1     1.356229977203   115.50607143   324.48340102
 H     20   4   3     0.977799452499   109.42753537   359.79520085
 N     16  15  11     1.512780348240   100.71096452   248.10188393
 H     22  16  15     1.030778356197   114.34724806   174.24506884
 H     22  16  15     1.035975672414   108.06560918   296.75945572
 H     22  16  15     1.065426276797   106.58216565    49.92826721

---------------------------
INTERNAL COORDINATES (A.U.)
---------------------------
 N      0   0   0     0.000000000000     0.00000000     0.00000000
 H      1   0   0     1.928930061242     0.00000000     0.00000000
 C      1   2   0     2.776475793827   119.43889601     0.00000000
 C      3   1   2     2.916913662893   112.85139625   132.55322956
 H      3   1   2     2.081016607790   110.94663671   252.66851550
 H      3   1   2     2.082721756121   108.05485248    11.84837349
 O      4   3   1     2.272646247269   122.29101706   146.31287836
 C      1   2   3     2.555531652219   119.42907587   193.32005521
 C      8   1   2     2.928819040598   117.76406943   354.06243206
 O      8   1   2     2.349262062480   120.68203747   174.12465913
 N      9   8   1     2.742736435259   108.14585918   192.24601232
 H      9   8   1     2.084377195403   108.74722854    74.09723182
 H      9   8   1     2.081691176043   111.79720914   314.28408713
 H     11   9   8     1.927401460863   115.92315100    76.37809793
 C     11   9   8     2.587722937651   115.81970494   293.37345649
 C     15  11   9     2.907359676434   116.77455539   138.56777681
 O     15  11   9     2.314275958162   124.33064501   329.58407932
 H     16  15  11     2.078409551351   112.26387651   132.17515048
 H     16  15  11     2.078348872692   115.30558995     4.30343264
 O      4   3   1     2.562903231529   115.50607143   324.48340102
 H     20   4   3     1.847773179121   109.42753537   359.79520085
 N     16  15  11     2.858740558952   100.71096452   248.10188393
 H     22  16  15     1.947888797986   114.34724806   174.24506884
 H     22  16  15     1.957710302267   108.06560918   296.75945572
 H     22  16  15     2.013363879030   106.58216565    49.92826721

---------------------
BASIS SET INFORMATION
---------------------
There are 4 groups of distinct atoms

 Group   1 Type N   : 11s6p2d1f contracted to 5s3p2d1f pattern {62111/411/11/1}
 Group   2 Type H   : 5s2p1d contracted to 3s2p1d pattern {311/11/1}
 Group   3 Type C   : 11s6p2d1f contracted to 5s3p2d1f pattern {62111/411/11/1}
 Group   4 Type O   : 11s6p2d1f contracted to 5s3p2d1f pattern {62111/411/11/1}

Atom   0N    basis set group =>   1
Atom   1H    basis set group =>   2
Atom   2C    basis set group =>   3
Atom   3C    basis set group =>   3
Atom   4H    basis set group =>   2
Atom   5H    basis set group =>   2
Atom   6O    basis set group =>   4
Atom   7C    basis set group =>   3
Atom   8C    basis set group =>   3
Atom   9O    basis set group =>   4
Atom  10N    basis set group =>   1
Atom  11H    basis set group =>   2
Atom  12H    basis set group =>   2
Atom  13H    basis set group =>   2
Atom  14C    basis set group =>   3
Atom  15C    basis set group =>   3
Atom  16O    basis set group =>   4
Atom  17H    basis set group =>   2
Atom  18H    basis set group =>   2
Atom  19O    basis set group =>   4
Atom  20H    basis set group =>   2
Atom  21N    basis set group =>   1
Atom  22H    basis set group =>   2
Atom  23H    basis set group =>   2
Atom  24H    basis set group =>   2
---------------------------------
AUXILIARY/J BASIS SET INFORMATION
---------------------------------
There are 4 groups of distinct atoms

 Group   1 Type N   : 12s5p4d2f1g contracted to 6s4p3d1f1g pattern {711111/2111/211/2/1}
 Group   2 Type H   : 5s2p1d contracted to 3s1p1d pattern {311/2/1}
 Group   3 Type C   : 12s5p4d2f1g contracted to 6s4p3d1f1g pattern {711111/2111/211/2/1}
 Group   4 Type O   : 12s5p4d2f1g contracted to 6s4p3d1f1g pattern {711111/2111/211/2/1}

Atom   0N    basis set group =>   1
Atom   1H    basis set group =>   2
Atom   2C    basis set group =>   3
Atom   3C    basis set group =>   3
Atom   4H    basis set group =>   2
Atom   5H    basis set group =>   2
Atom   6O    basis set group =>   4
Atom   7C    basis set group =>   3
Atom   8C    basis set group =>   3
Atom   9O    basis set group =>   4
Atom  10N    basis set group =>   1
Atom  11H    basis set group =>   2
Atom  12H    basis set group =>   2
Atom  13H    basis set group =>   2
Atom  14C    basis set group =>   3
Atom  15C    basis set group =>   3
Atom  16O    basis set group =>   4
Atom  17H    basis set group =>   2
Atom  18H    basis set group =>   2
Atom  19O    basis set group =>   4
Atom  20H    basis set group =>   2
Atom  21N    basis set group =>   1
Atom  22H    basis set group =>   2
Atom  23H    basis set group =>   2
Atom  24H    basis set group =>   2


           ************************************************************
           *        Program running with 8 parallel MPI-processes     *
           *              working on a common directory               *
           ************************************************************
------------------------------------------------------------------------------
                           ORCA GTO INTEGRAL CALCULATION
                           -- RI-GTO INTEGRALS CHOSEN --
------------------------------------------------------------------------------
------------------------------------------------------------------------------
                   ___                                                        
                  /   \      - P O W E R E D   B Y -                         
                 /     \                                                     
                 |  |  |   _    _      __       _____    __    __             
                 |  |  |  | |  | |    /  \     |  _  \  |  |  /  |          
                  \  \/   | |  | |   /    \    | | | |  |  | /  /          
                 / \  \   | |__| |  /  /\  \   | |_| |  |  |/  /          
                |  |  |   |  __  | /  /__\  \  |    /   |      \           
                |  |  |   | |  | | |   __   |  |    \   |  |\   \          
                \     /   | |  | | |  |  |  |  | |\  \  |  | \   \       
                 \___/    |_|  |_| |__|  |__|  |_| \__\ |__|  \__/        
                                                                              
                      - O R C A' S   B I G   F R I E N D -                    
                                      &                                       
                       - I N T E G R A L  F E E D E R -                       
                                                                              
 v1 FN, 2020, v2 2021                                                         
------------------------------------------------------------------------------


Reading SHARK input file GGG-H_tt_010_OptFreq.SHARKINP.tmp ... ok
----------------------
SHARK INTEGRAL PACKAGE
----------------------

Number of atoms                             ...     25
Number of basis functions                   ...    571
Number of shells                            ...    215
Maximum angular momentum                    ...      3
Integral batch strategy                     ... SHARK/LIBINT Hybrid
RI-J (if used) integral strategy            ... SPLIT-RIJ (Revised 2003 algorithm where possible)
Printlevel                                  ...      1
Contraction scheme used                     ... SEGMENTED contraction
Coulomb Range Separation                    ... NOT USED
Exchange Range Separation                   ... Long Range
   Mu parameter                             ...  0.300000
   Scaling (regular/separated)              ...  0.167000  0.833000
Finite Nucleus Model                        ... NOT USED
Auxiliary Coulomb fitting basis             ... AVAILABLE
   # of basis functions in Aux-J            ...    769
   # of shells in Aux-J                     ...    255
   Maximum angular momentum in Aux-J        ...      4
Auxiliary J/K fitting basis                 ... NOT available
Auxiliary Correlation fitting basis         ... NOT available
Auxiliary 'external' fitting basis          ... NOT available
Integral threshold                          ...     1.000000e-12
Primitive cut-off                           ...     1.000000e-14
Primitive pair pre-selection threshold      ...     1.000000e-14

Calculating pre-screening integrals         ... done (  0.0 sec) Dimension = 215
Organizing shell pair data                  ... done (  0.2 sec)
Shell pair information
Total number of shell pairs                 ...     23220
Shell pairs after pre-screening             ...     19260
Total number of primitive shell pairs       ...     63868
Primitive shell pairs kept                  ...     38724
          la=0 lb=0:   4225 shell pairs
          la=1 lb=0:   5426 shell pairs
          la=1 lb=1:   1789 shell pairs
          la=2 lb=0:   3046 shell pairs
          la=2 lb=1:   2008 shell pairs
          la=2 lb=2:    574 shell pairs
          la=3 lb=0:   1050 shell pairs
          la=3 lb=1:    692 shell pairs
          la=3 lb=2:    381 shell pairs
          la=3 lb=3:     69 shell pairs

Calculating one electron integrals          ... done (  0.0 sec)
Calculating RI/J V-Matrix + Cholesky decomp.... done (  0.3 sec)
Calculating Nuclear repulsion               ... done (  0.0 sec) ENN=    865.528831990594 Eh

SHARK setup successfully completed in   1.8 seconds

Maximum memory used throughout the entire GTOINT-calculation: 31.1 MB


           ************************************************************
           *        Program running with 8 parallel MPI-processes     *
           *              working on a common directory               *
           ************************************************************
-------------------------------------------------------------------------------
                                 ORCA SCF
-------------------------------------------------------------------------------

------------
SCF SETTINGS
------------
Hamiltonian:
 Density Functional     Method          .... DFT(GTOs)
 Exchange Functional    Exchange        .... WB97X-V
 Correlation Functional Correlation     .... WB97X-V
 Gradients option       PostSCFGGA      .... off
 Hybrid DFT is turned on
   Fraction HF Exchange ScalHFX         ....  0.167000
   Scaling of DF-GGA-X  ScalDFX         ....  0.000000
   Scaling of DF-GGA-C  ScalDFC         ....  1.000000
   Scaling of DF-LDA-C  ScalLDAC        ....  1.000000
   Perturbative correction              ....  0.000000
   Density functional embedding theory  .... OFF
 Long-range corrected/Screened/Range-Separated Hybrid DFT is turned on
   Amount of maximum screened exact exchange              ....  0.833000
   Range separation parameter mu (erf(mu*r12)/r12)        ....  0.300000
 RI-approximation to the Coulomb term is turned on
   Number of AuxJ basis functions       .... 769
   RIJ-COSX (HFX calculated with COS-X)).... on


General Settings:
 Integral files         IntName         .... GGG-H_tt_010_OptFreq
 Hartree-Fock type      HFTyp           .... RHF
 Total Charge           Charge          ....    1
 Multiplicity           Mult            ....    1
 Number of Electrons    NEL             ....  100
 Basis Dimension        Dim             ....  571
 Nuclear Repulsion      ENuc            ....    865.5288319906 Eh

Convergence Acceleration:
 DIIS                   CNVDIIS         .... on
   Start iteration      DIISMaxIt       ....    12
   Startup error        DIISStart       ....  0.200000
   # of expansion vecs  DIISMaxEq       ....     5
   Bias factor          DIISBfac        ....   1.050
   Max. coefficient     DIISMaxC        ....  10.000
 Trust-Rad. Augm. Hess. CNVTRAH         .... auto
   Auto Start mean grad. ratio tolernc. ....  1.125000
   Auto Start start iteration           ....    20
   Auto Start num. interpolation iter.  ....    10
   Max. Number of Micro iterations      ....    16
   Max. Number of Macro iterations      .... Maxiter - #DIIS iter
   Number of Davidson start vectors     ....     2
   Converg. threshold I  (grad. norm)   ....   2.000e-06
   Converg. threshold II (energy diff.) ....   1.000e-09
   Grad. Scal. Fac. for Micro threshold ....   0.100
   Minimum threshold for Micro iter.    ....   0.010
   NR start threshold (gradient norm)   ....   0.001
   Initial trust radius                 ....   0.400
   Minimum AH scaling param. (alpha)    ....   1.000
   Maximum AH scaling param. (alpha)    .... 1000.000
   Orbital update algorithm             .... Taylor
   White noise on init. David. guess    .... on
   Maximum white noise                  ....   0.010
   Quad. conv. algorithm                .... NR
 SOSCF                  CNVSOSCF        .... on
   Start iteration      SOSCFMaxIt      ....   150
   Startup grad/error   SOSCFStart      ....  0.003300
 Level Shifting         CNVShift        .... on
   Level shift para.    LevelShift      ....    0.2500
   Turn off err/grad.   ShiftErr        ....    0.0010
 Zerner damping         CNVZerner       .... off
 Static damping         CNVDamp         .... on
   Fraction old density DampFac         ....    0.7000
   Max. Damping (<1)    DampMax         ....    0.9800
   Min. Damping (>=0)   DampMin         ....    0.0000
   Turn off err/grad.   DampErr         ....    0.1000
 Fernandez-Rico         CNVRico         .... off

SCF Procedure:
 Maximum # iterations   MaxIter         ....   125
 SCF integral mode      SCFMode         .... Direct
   Integral package                     .... SHARK and LIBINT hybrid scheme
 Reset frequency        DirectResetFreq ....    20
 Integral Threshold     Thresh          ....  1.000e-12 Eh
 Primitive CutOff       TCut            ....  1.000e-14 Eh

Convergence Tolerance:
 Convergence Check Mode ConvCheckMode   .... Total+1el-Energy
 Convergence forced     ConvForced      .... 0
 Energy Change          TolE            ....  1.000e-09 Eh
 1-El. energy change                    ....  1.000e-06 Eh
 Orbital Gradient       TolG            ....  2.000e-06
 Orbital Rotation angle TolX            ....  2.000e-06
 DIIS Error             TolErr          ....  1.000e-08


Diagonalization of the overlap matrix:
Smallest eigenvalue                        ... 1.094e-04
Time for diagonalization                   ...    0.048 sec
Threshold for overlap eigenvalues          ... 1.000e-08
Number of eigenvalues below threshold      ... 0
Time for construction of square roots      ...    0.048 sec
Total time needed                          ...    0.131 sec

Time for model grid setup =    0.307 sec

------------------------------
INITIAL GUESS: MODEL POTENTIAL
------------------------------
Loading Hartree-Fock densities                     ... done
Calculating cut-offs                               ... done
Initializing the effective Hamiltonian             ... done
Setting up the integral package (SHARK)            ... done
Starting the Coulomb interaction                   ... done (   0.3 sec)
Reading the grid                                   ... done
Mapping shells                                     ... done
Starting the XC term evaluation                    ... done (   0.1 sec)
  promolecular density results
     # of electrons  =    100.993425554
     EX              =    -58.962486557
     EC              =     -4.266636521
     EX+EC           =    -63.229123078
Transforming the Hamiltonian                       ... done (   0.0 sec)
Diagonalizing the Hamiltonian                      ... done (   0.0 sec)
Back transforming the eigenvectors                 ... done (   0.0 sec)
Now organizing SCF variables                       ... done
                      ------------------
                      INITIAL GUESS DONE (   0.8 sec)
                      ------------------
-------------------
DFT GRID GENERATION
-------------------

General Integration Accuracy     IntAcc      ... 4.959
Radial Grid Type                 RadialGrid  ... OptM3 with GC (2021)
Angular Grid (max. ang.)         AngularGrid ... 6 (Lebedev-590)
Angular grid pruning method      GridPruning ... 4 (adaptive)
Weight generation scheme         WeightScheme... Becke
Basis function cutoff            BFCut       ... 1.0000e-12
Integration weight cutoff        WCut        ... 1.0000e-14
Angular grids for H and He will be reduced by one unit
Partially contracted basis set               ... off
Rotationally invariant grid construction     ... off

Total number of grid points                  ...   289032
Total number of batches                      ...     4527
Average number of points per batch           ...       63
Average number of grid points per atom       ...    11561
Time for grid setup =    3.205 sec

--------------------
COSX GRID GENERATION
--------------------

GRIDX 1
-------
General Integration Accuracy     IntAcc      ... 4.020
Radial Grid Type                 RadialGrid  ... OptM3 with GC (2021)
Angular Grid (max. ang.)         AngularGrid ... 2 (Lebedev-110)
Angular grid pruning method      GridPruning ... 4 (adaptive)
Weight generation scheme         WeightScheme... Becke
Basis function cutoff            BFCut       ... 1.0000e-12
Integration weight cutoff        WCut        ... 1.0000e-14
Angular grids for H and He will be reduced by one unit
Partially contracted basis set               ... on
Rotationally invariant grid construction     ... off

Total number of grid points                  ...    32214
Total number of batches                      ...      517
Average number of points per batch           ...       62
Average number of grid points per atom       ...     1289
UseSFitting                                  ... on

GRIDX 2
-------
General Integration Accuracy     IntAcc      ... 4.338
Radial Grid Type                 RadialGrid  ... OptM3 with GC (2021)
Angular Grid (max. ang.)         AngularGrid ... 3 (Lebedev-194)
Angular grid pruning method      GridPruning ... 4 (adaptive)
Weight generation scheme         WeightScheme... Becke
Basis function cutoff            BFCut       ... 1.0000e-12
Integration weight cutoff        WCut        ... 1.0000e-14
Angular grids for H and He will be reduced by one unit
Partially contracted basis set               ... on
Rotationally invariant grid construction     ... off

Total number of grid points                  ...    70521
Total number of batches                      ...     1114
Average number of points per batch           ...       63
Average number of grid points per atom       ...     2821
UseSFitting                                  ... on

GRIDX 3
-------
General Integration Accuracy     IntAcc      ... 4.871
Radial Grid Type                 RadialGrid  ... OptM3 with GC (2021)
Angular Grid (max. ang.)         AngularGrid ... 4 (Lebedev-302)
Angular grid pruning method      GridPruning ... 4 (adaptive)
Weight generation scheme         WeightScheme... Becke
Basis function cutoff            BFCut       ... 1.0000e-12
Integration weight cutoff        WCut        ... 1.0000e-14
Angular grids for H and He will be reduced by one unit
Partially contracted basis set               ... on
Rotationally invariant grid construction     ... off

Total number of grid points                  ...   133534
Total number of batches                      ...     2100
Average number of points per batch           ...       63
Average number of grid points per atom       ...     5341
UseSFitting                                  ... on

Time for X-Grid setup             =    2.164 sec

--------------
SCF ITERATIONS
--------------
ITER       Energy         Delta-E        Max-DP      RMS-DP      [F,P]     Damp
               ***  Starting incremental Fock matrix formation  ***
  0   -701.1403616652   0.000000000000 0.07750596  0.00052277  0.3424417 0.7000
  1   -701.1906783861  -0.050316720885 0.07780299  0.00047929  0.2342281 0.7000
                               ***Turning on DIIS***
  2   -701.2195906241  -0.028912238065 0.06596443  0.00037660  0.1633734 0.7000
  3   -701.2386123478  -0.019021723647 0.05561576  0.00030270  0.1126584 0.7000
  4   -701.2520009074  -0.013388559601 0.14389755  0.00079562  0.0774449 0.0000
                      *** Initiating the SOSCF procedure ***
                           *** Shutting down DIIS ***
                      *** Re-Reading the Fockian *** 
                      *** Removing any level shift *** 
ITER      Energy       Delta-E        Grad      Rot      Max-DP    RMS-DP
  5   -701.28434783  -0.0323469230  0.001671  0.001671  0.010154  0.000078
               *** Restarting incremental Fock matrix formation ***
  6   -701.28448984  -0.0001420071  0.001040  0.002382  0.006628  0.000047
  7   -701.28453006  -0.0000402223  0.000573  0.002337  0.004110  0.000034
  8   -701.28453956  -0.0000095043  0.000337  0.000484  0.001207  0.000011
  9   -701.28454227  -0.0000027026  0.000077  0.000082  0.000725  0.000006
 10   -701.28454253  -0.0000002594  0.000027  0.000100  0.000233  0.000002
 11   -701.28454266  -0.0000001373  0.000013  0.000042  0.000018  0.000000
 12   -701.28454267  -0.0000000047  0.000006  0.000016  0.000029  0.000000
 13   -701.28454267  -0.0000000023  0.000002  0.000009  0.000006  0.000000
 14   -701.28454267  -0.0000000002  0.000001  0.000005  0.000002  0.000000
 15   -701.28454267  -0.0000000000  0.000001  0.000001  0.000002  0.000000
                  ***Gradient check signals convergence***
              ***Rediagonalizing the Fockian in SOSCF/NRSCF***

               *****************************************************
               *                     SUCCESS                       *
               *           SCF CONVERGED AFTER  16 CYCLES          *
               *****************************************************

Old exchange energy                            =    -27.829379714 Eh
New exchange energy                            =    -27.829380633 Eh
Exchange energy change after final integration =     -0.000000919 Eh
Total energy after final integration           =   -701.284543589 Eh
Final COS-X integration done in                =    30.640 sec

----------------
TOTAL SCF ENERGY
----------------

Total Energy       :         -701.28454359 Eh          -19082.92259 eV

Components:
Nuclear Repulsion  :          865.52883199 Eh           23552.23689 eV
Electronic Energy  :        -1566.81337558 Eh          -42635.15948 eV
One Electron Energy:        -2659.23376182 Eh          -72361.42944 eV
Two Electron Energy:         1092.42038624 Eh           29726.26996 eV
Max COSX asymmetry :            0.00000102 Eh               0.00003 eV

Virial components:
Potential Energy   :        -1399.23914773 Eh          -38075.23292 eV
Kinetic Energy     :          697.95460414 Eh           18992.31033 eV
Virial Ratio       :            2.00477100


DFT components:
N(Alpha)           :       50.000001313242 electrons
N(Beta)            :       50.000001313242 electrons
N(Total)           :      100.000002626484 electrons
E(X)               :      -60.040092908485 Eh       
E(C)               :       -4.264459648481 Eh       
E(XC)              :      -64.304552556966 Eh       
DFET-embed. en.    :        0.000000000000 Eh       

---------------
SCF CONVERGENCE
---------------

  Last Energy change         ...    3.5243e-10  Tolerance :   1.0000e-09
  Last MAX-Density change    ...    1.1102e-15  Tolerance :   1.0000e-08
  Last RMS-Density change    ...    1.1762e-17  Tolerance :   1.0000e-09
  Last Orbital Gradient      ...    1.1215e-07  Tolerance :   2.0000e-06
  Last Orbital Rotation      ...    3.9245e-07  Tolerance :   2.0000e-06

             **** THE GBW FILE WAS UPDATED (GGG-H_tt_010_OptFreq.gbw) ****
             **** DENSITY GGG-H_tt_010_OptFreq.scfp WAS UPDATED ****
             **** ENERGY FILE WAS UPDATED (GGG-H_tt_010_OptFreq.en.tmp) ****
             **** THE GBW FILE WAS UPDATED (GGG-H_tt_010_OptFreq.gbw) ****
             **** DENSITY GGG-H_tt_010_OptFreq.scfp WAS UPDATED ****
----------------
ORBITAL ENERGIES
----------------

  NO   OCC          E(Eh)            E(eV) 
   0   2.0000     -19.376686      -527.2664 
   1   2.0000     -19.364309      -526.9296 
   2   2.0000     -19.355102      -526.6791 
   3   2.0000     -19.310922      -525.4769 
   4   2.0000     -14.700181      -400.0122 
   5   2.0000     -14.613704      -397.6591 
   6   2.0000     -14.607277      -397.4842 
   7   2.0000     -10.557260      -287.2777 
   8   2.0000     -10.555482      -287.2293 
   9   2.0000     -10.524255      -286.3795 
  10   2.0000     -10.518413      -286.2206 
  11   2.0000     -10.487512      -285.3797 
  12   2.0000     -10.465097      -284.7698 
  13   2.0000      -1.360406       -37.0185 
  14   2.0000      -1.349531       -36.7226 
  15   2.0000      -1.339510       -36.4499 
  16   2.0000      -1.293494       -35.1977 
  17   2.0000      -1.264246       -34.4019 
  18   2.0000      -1.229571       -33.4583 
  19   2.0000      -1.224682       -33.3253 
  20   2.0000      -1.063057       -28.9272 
  21   2.0000      -1.030392       -28.0384 
  22   2.0000      -0.983643       -26.7663 
  23   2.0000      -0.895118       -24.3574 
  24   2.0000      -0.886729       -24.1291 
  25   2.0000      -0.872610       -23.7449 
  26   2.0000      -0.858193       -23.3526 
  27   2.0000      -0.845751       -23.0140 
  28   2.0000      -0.818688       -22.2776 
  29   2.0000      -0.800320       -21.7778 
  30   2.0000      -0.778424       -21.1820 
  31   2.0000      -0.769884       -20.9496 
  32   2.0000      -0.754093       -20.5199 
  33   2.0000      -0.739751       -20.1296 
  34   2.0000      -0.718172       -19.5425 
  35   2.0000      -0.713780       -19.4230 
  36   2.0000      -0.704953       -19.1827 
  37   2.0000      -0.693624       -18.8745 
  38   2.0000      -0.685973       -18.6663 
  39   2.0000      -0.665866       -18.1191 
  40   2.0000      -0.655422       -17.8349 
  41   2.0000      -0.644613       -17.5408 
  42   2.0000      -0.628935       -17.1142 
  43   2.0000      -0.610792       -16.6205 
  44   2.0000      -0.562328       -15.3017 
  45   2.0000      -0.549231       -14.9453 
  46   2.0000      -0.545878       -14.8541 
  47   2.0000      -0.539432       -14.6787 
  48   2.0000      -0.528224       -14.3737 
  49   2.0000      -0.495363       -13.4795 
  50   0.0000      -0.091478        -2.4892 
  51   0.0000      -0.073608        -2.0030 
  52   0.0000      -0.064976        -1.7681 
  53   0.0000      -0.044989        -1.2242 
  54   0.0000      -0.035263        -0.9596 
  55   0.0000      -0.019544        -0.5318 
  56   0.0000      -0.007566        -0.2059 
  57   0.0000       0.004294         0.1168 
  58   0.0000       0.013182         0.3587 
  59   0.0000       0.019698         0.5360 
  60   0.0000       0.029936         0.8146 
  61   0.0000       0.037675         1.0252 
  62   0.0000       0.053618         1.4590 
  63   0.0000       0.062258         1.6941 
  64   0.0000       0.068406         1.8614 
  65   0.0000       0.072117         1.9624 
  66   0.0000       0.080204         2.1825 
  67   0.0000       0.094333         2.5669 
  68   0.0000       0.105957         2.8832 
  69   0.0000       0.113986         3.1017 
  70   0.0000       0.118780         3.2322 
  71   0.0000       0.125497         3.4149 
  72   0.0000       0.126946         3.4544 
  73   0.0000       0.145315         3.9542 
  74   0.0000       0.156903         4.2696 
  75   0.0000       0.160348         4.3633 
  76   0.0000       0.177049         4.8178 
  77   0.0000       0.190323         5.1789 
  78   0.0000       0.206547         5.6204 
  79   0.0000       0.211414         5.7529 
  80   0.0000       0.217309         5.9133 
  81   0.0000       0.227376         6.1872 
  82   0.0000       0.232810         6.3351 
  83   0.0000       0.243663         6.6304 
  84   0.0000       0.252551         6.8723 
  85   0.0000       0.255085         6.9412 
  86   0.0000       0.270698         7.3661 
  87   0.0000       0.276333         7.5194 
  88   0.0000       0.284079         7.7302 
  89   0.0000       0.286820         7.8048 
  90   0.0000       0.294217         8.0060 
  91   0.0000       0.303930         8.2704 
  92   0.0000       0.311046         8.4640 
  93   0.0000       0.319542         8.6952 
  94   0.0000       0.321521         8.7490 
  95   0.0000       0.332351         9.0437 
  96   0.0000       0.335793         9.1374 
  97   0.0000       0.342182         9.3112 
  98   0.0000       0.344974         9.3872 
  99   0.0000       0.351162         9.5556 
 100   0.0000       0.355146         9.6640 
 101   0.0000       0.367812        10.0087 
 102   0.0000       0.369978        10.0676 
 103   0.0000       0.374216        10.1829 
 104   0.0000       0.379710        10.3324 
 105   0.0000       0.383324        10.4308 
 106   0.0000       0.397685        10.8215 
 107   0.0000       0.400757        10.9051 
 108   0.0000       0.406461        11.0604 
 109   0.0000       0.416113        11.3230 
 110   0.0000       0.434620        11.8266 
 111   0.0000       0.437902        11.9159 
 112   0.0000       0.447506        12.1773 
 113   0.0000       0.457715        12.4551 
 114   0.0000       0.466774        12.7016 
 115   0.0000       0.471524        12.8308 
 116   0.0000       0.484225        13.1764 
 117   0.0000       0.493227        13.4214 
 118   0.0000       0.504475        13.7275 
 119   0.0000       0.510887        13.9020 
 120   0.0000       0.518627        14.1126 
 121   0.0000       0.528674        14.3860 
 122   0.0000       0.551235        14.9999 
 123   0.0000       0.560857        15.2617 
 124   0.0000       0.572733        15.5849 
 125   0.0000       0.581681        15.8283 
 126   0.0000       0.584383        15.9019 
 127   0.0000       0.594166        16.1681 
 128   0.0000       0.613020        16.6811 
 129   0.0000       0.623332        16.9617 
 130   0.0000       0.633593        17.2409 
 131   0.0000       0.636210        17.3121 
 132   0.0000       0.646980        17.6052 
 133   0.0000       0.652826        17.7643 
 134   0.0000       0.659617        17.9491 
 135   0.0000       0.675683        18.3863 
 136   0.0000       0.692044        18.8315 
 137   0.0000       0.708305        19.2740 
 138   0.0000       0.711552        19.3623 
 139   0.0000       0.725908        19.7530 
 140   0.0000       0.731581        19.9073 
 141   0.0000       0.745035        20.2734 
 142   0.0000       0.762630        20.7522 
 143   0.0000       0.780893        21.2492 
 144   0.0000       0.795118        21.6363 
 145   0.0000       0.798832        21.7373 
 146   0.0000       0.816863        22.2280 
 147   0.0000       0.819922        22.3112 
 148   0.0000       0.841996        22.9119 
 149   0.0000       0.846920        23.0459 
 150   0.0000       0.857197        23.3255 
 151   0.0000       0.867657        23.6101 
 152   0.0000       0.876148        23.8412 
 153   0.0000       0.896133        24.3850 
 154   0.0000       0.905474        24.6392 
 155   0.0000       0.919174        25.0120 
 156   0.0000       0.921347        25.0711 
 157   0.0000       0.930049        25.3079 
 158   0.0000       0.934540        25.4301 
 159   0.0000       0.945558        25.7300 
 160   0.0000       0.968386        26.3511 
 161   0.0000       0.973584        26.4926 
 162   0.0000       0.983516        26.7628 
 163   0.0000       0.991093        26.9690 
 164   0.0000       0.999707        27.2034 
 165   0.0000       1.012811        27.5600 
 166   0.0000       1.015725        27.6393 
 167   0.0000       1.033831        28.1320 
 168   0.0000       1.036757        28.2116 
 169   0.0000       1.053700        28.6726 
 170   0.0000       1.059266        28.8241 
 171   0.0000       1.061167        28.8758 
 172   0.0000       1.074106        29.2279 
 173   0.0000       1.084962        29.5233 
 174   0.0000       1.095950        29.8223 
 175   0.0000       1.105673        30.0869 
 176   0.0000       1.118892        30.4466 
 177   0.0000       1.130081        30.7511 
 178   0.0000       1.133848        30.8536 
 179   0.0000       1.141187        31.0533 
 180   0.0000       1.159278        31.5456 
 181   0.0000       1.166271        31.7359 
 182   0.0000       1.175558        31.9886 
 183   0.0000       1.188701        32.3462 
 184   0.0000       1.195739        32.5377 
 185   0.0000       1.197376        32.5823 
 186   0.0000       1.206390        32.8275 
 187   0.0000       1.220998        33.2250 
 188   0.0000       1.239128        33.7184 
 189   0.0000       1.246124        33.9087 
 190   0.0000       1.263056        34.3695 
 191   0.0000       1.271440        34.5976 
 192   0.0000       1.286808        35.0158 
 193   0.0000       1.291175        35.1347 
 194   0.0000       1.319706        35.9110 
 195   0.0000       1.331876        36.2422 
 196   0.0000       1.339614        36.4528 
 197   0.0000       1.361878        37.0586 
 198   0.0000       1.365188        37.1487 
 199   0.0000       1.381410        37.5901 
 200   0.0000       1.387240        37.7487 
 201   0.0000       1.399695        38.0876 
 202   0.0000       1.406783        38.2805 
 203   0.0000       1.408289        38.3215 
 204   0.0000       1.426135        38.8071 
 205   0.0000       1.440754        39.2049 
 206   0.0000       1.447933        39.4003 
 207   0.0000       1.456069        39.6216 
 208   0.0000       1.465150        39.8688 
 209   0.0000       1.484873        40.4055 
 210   0.0000       1.493055        40.6281 
 211   0.0000       1.495038        40.6821 
 212   0.0000       1.508873        41.0585 
 213   0.0000       1.513840        41.1937 
 214   0.0000       1.529016        41.6066 
 215   0.0000       1.536228        41.8029 
 216   0.0000       1.547049        42.0973 
 217   0.0000       1.558165        42.3998 
 218   0.0000       1.561105        42.4798 
 219   0.0000       1.591592        43.3094 
 220   0.0000       1.603754        43.6404 
 221   0.0000       1.612238        43.8712 
 222   0.0000       1.620785        44.1038 
 223   0.0000       1.635349        44.5001 
 224   0.0000       1.640181        44.6316 
 225   0.0000       1.677618        45.6503 
 226   0.0000       1.700966        46.2856 
 227   0.0000       1.705195        46.4007 
 228   0.0000       1.730906        47.1003 
 229   0.0000       1.751784        47.6685 
 230   0.0000       1.786697        48.6185 
 231   0.0000       1.799941        48.9789 
 232   0.0000       1.811304        49.2881 
 233   0.0000       1.826039        49.6890 
 234   0.0000       1.848749        50.3070 
 235   0.0000       1.860864        50.6367 
 236   0.0000       1.865099        50.7519 
 237   0.0000       1.886777        51.3418 
 238   0.0000       1.895291        51.5735 
 239   0.0000       1.901884        51.7529 
 240   0.0000       1.943308        52.8801 
 241   0.0000       1.951615        53.1062 
 242   0.0000       1.970236        53.6129 
 243   0.0000       1.991619        54.1947 
 244   0.0000       1.997723        54.3608 
 245   0.0000       2.017554        54.9004 
 246   0.0000       2.030461        55.2516 
 247   0.0000       2.052719        55.8573 
 248   0.0000       2.070747        56.3479 
 249   0.0000       2.086006        56.7631 
 250   0.0000       2.102700        57.2174 
 251   0.0000       2.131991        58.0144 
 252   0.0000       2.151335        58.5408 
 253   0.0000       2.174688        59.1763 
 254   0.0000       2.182194        59.3805 
 255   0.0000       2.199469        59.8506 
 256   0.0000       2.221535        60.4510 
 257   0.0000       2.227348        60.6092 
 258   0.0000       2.247596        61.1602 
 259   0.0000       2.266075        61.6630 
 260   0.0000       2.283345        62.1330 
 261   0.0000       2.300213        62.5920 
 262   0.0000       2.333147        63.4882 
 263   0.0000       2.340394        63.6854 
 264   0.0000       2.353721        64.0480 
 265   0.0000       2.367127        64.4128 
 266   0.0000       2.409419        65.5636 
 267   0.0000       2.452705        66.7415 
 268   0.0000       2.459504        66.9265 
 269   0.0000       2.473433        67.3055 
 270   0.0000       2.487655        67.6925 
 271   0.0000       2.498318        67.9827 
 272   0.0000       2.508557        68.2613 
 273   0.0000       2.520425        68.5843 
 274   0.0000       2.543576        69.2142 
 275   0.0000       2.560545        69.6760 
 276   0.0000       2.577328        70.1327 
 277   0.0000       2.584989        70.3411 
 278   0.0000       2.595609        70.6301 
 279   0.0000       2.604623        70.8754 
 280   0.0000       2.629370        71.5488 
 281   0.0000       2.633459        71.6601 
 282   0.0000       2.648171        72.0604 
 283   0.0000       2.655160        72.2506 
 284   0.0000       2.670525        72.6687 
 285   0.0000       2.677699        72.8639 
 286   0.0000       2.699867        73.4671 
 287   0.0000       2.706592        73.6501 
 288   0.0000       2.728121        74.2360 
 289   0.0000       2.741025        74.5871 
 290   0.0000       2.750893        74.8556 
 291   0.0000       2.763377        75.1953 
 292   0.0000       2.768584        75.3370 
 293   0.0000       2.787427        75.8498 
 294   0.0000       2.807525        76.3966 
 295   0.0000       2.815050        76.6014 
 296   0.0000       2.836319        77.1802 
 297   0.0000       2.853064        77.6358 
 298   0.0000       2.861327        77.8607 
 299   0.0000       2.878590        78.3304 
 300   0.0000       2.890795        78.6625 
 301   0.0000       2.897308        78.8397 
 302   0.0000       2.899798        78.9075 
 303   0.0000       2.904218        79.0278 
 304   0.0000       2.922796        79.5333 
 305   0.0000       2.938865        79.9706 
 306   0.0000       2.941422        80.0402 
 307   0.0000       2.959178        80.5233 
 308   0.0000       2.973810        80.9215 
 309   0.0000       2.988837        81.3304 
 310   0.0000       2.997942        81.5782 
 311   0.0000       3.000820        81.6565 
 312   0.0000       3.025139        82.3182 
 313   0.0000       3.026394        82.3524 
 314   0.0000       3.031524        82.4920 
 315   0.0000       3.042203        82.7826 
 316   0.0000       3.050065        82.9965 
 317   0.0000       3.060171        83.2715 
 318   0.0000       3.071911        83.5910 
 319   0.0000       3.079688        83.8026 
 320   0.0000       3.082517        83.8796 
 321   0.0000       3.086960        84.0005 
 322   0.0000       3.099581        84.3439 
 323   0.0000       3.111646        84.6722 
 324   0.0000       3.124384        85.0188 
 325   0.0000       3.134616        85.2972 
 326   0.0000       3.142061        85.4998 
 327   0.0000       3.155678        85.8704 
 328   0.0000       3.167801        86.2003 
 329   0.0000       3.173850        86.3649 
 330   0.0000       3.182940        86.6122 
 331   0.0000       3.188219        86.7559 
 332   0.0000       3.197762        87.0155 
 333   0.0000       3.218985        87.5930 
 334   0.0000       3.227415        87.8224 
 335   0.0000       3.238622        88.1274 
 336   0.0000       3.243270        88.2539 
 337   0.0000       3.246323        88.3369 
 338   0.0000       3.266296        88.8804 
 339   0.0000       3.276801        89.1663 
 340   0.0000       3.284391        89.3728 
 341   0.0000       3.310688        90.0884 
 342   0.0000       3.320707        90.3610 
 343   0.0000       3.323338        90.4326 
 344   0.0000       3.334075        90.7248 
 345   0.0000       3.341435        90.9251 
 346   0.0000       3.343716        90.9871 
 347   0.0000       3.356077        91.3235 
 348   0.0000       3.370555        91.7175 
 349   0.0000       3.379136        91.9510 
 350   0.0000       3.390829        92.2691 
 351   0.0000       3.405161        92.6591 
 352   0.0000       3.414587        92.9156 
 353   0.0000       3.424465        93.1844 
 354   0.0000       3.433703        93.4358 
 355   0.0000       3.445605        93.7597 
 356   0.0000       3.451104        93.9093 
 357   0.0000       3.457159        94.0741 
 358   0.0000       3.462242        94.2124 
 359   0.0000       3.485980        94.8583 
 360   0.0000       3.498768        95.2063 
 361   0.0000       3.508268        95.4648 
 362   0.0000       3.514217        95.6267 
 363   0.0000       3.537538        96.2613 
 364   0.0000       3.549589        96.5892 
 365   0.0000       3.558202        96.8236 
 366   0.0000       3.563415        96.9654 
 367   0.0000       3.572582        97.2149 
 368   0.0000       3.587235        97.6136 
 369   0.0000       3.597692        97.8982 
 370   0.0000       3.606790        98.1457 
 371   0.0000       3.623920        98.6119 
 372   0.0000       3.628310        98.7313 
 373   0.0000       3.655603        99.4740 
 374   0.0000       3.657544        99.5268 
 375   0.0000       3.666233        99.7633 
 376   0.0000       3.684463       100.2593 
 377   0.0000       3.701157       100.7136 
 378   0.0000       3.711906       101.0061 
 379   0.0000       3.744259       101.8865 
 380   0.0000       3.744356       101.8891 
 381   0.0000       3.759966       102.3139 
 382   0.0000       3.770996       102.6140 
 383   0.0000       3.773349       102.6780 
 384   0.0000       3.782589       102.9295 
 385   0.0000       3.790380       103.1415 
 386   0.0000       3.803554       103.5000 
 387   0.0000       3.816606       103.8551 
 388   0.0000       3.833892       104.3255 
 389   0.0000       3.847518       104.6963 
 390   0.0000       3.867232       105.2327 
 391   0.0000       3.886693       105.7623 
 392   0.0000       3.892370       105.9168 
 393   0.0000       3.902559       106.1940 
 394   0.0000       3.906281       106.2953 
 395   0.0000       3.918610       106.6308 
 396   0.0000       3.940395       107.2236 
 397   0.0000       3.951403       107.5231 
 398   0.0000       3.956309       107.6566 
 399   0.0000       3.989017       108.5467 
 400   0.0000       3.993613       108.6717 
 401   0.0000       4.002885       108.9240 
 402   0.0000       4.022591       109.4603 
 403   0.0000       4.038910       109.9043 
 404   0.0000       4.044182       110.0478 
 405   0.0000       4.057824       110.4190 
 406   0.0000       4.074386       110.8697 
 407   0.0000       4.089493       111.2808 
 408   0.0000       4.104885       111.6996 
 409   0.0000       4.116792       112.0236 
 410   0.0000       4.119857       112.1070 
 411   0.0000       4.139790       112.6494 
 412   0.0000       4.153397       113.0197 
 413   0.0000       4.162883       113.2778 
 414   0.0000       4.168293       113.4250 
 415   0.0000       4.187223       113.9401 
 416   0.0000       4.190751       114.0361 
 417   0.0000       4.211226       114.5933 
 418   0.0000       4.217706       114.7696 
 419   0.0000       4.238251       115.3287 
 420   0.0000       4.244744       115.5054 
 421   0.0000       4.271061       116.2215 
 422   0.0000       4.280605       116.4812 
 423   0.0000       4.290411       116.7480 
 424   0.0000       4.296563       116.9154 
 425   0.0000       4.309604       117.2703 
 426   0.0000       4.325421       117.7007 
 427   0.0000       4.334925       117.9593 
 428   0.0000       4.369289       118.8944 
 429   0.0000       4.384674       119.3130 
 430   0.0000       4.400341       119.7394 
 431   0.0000       4.415602       120.1546 
 432   0.0000       4.431311       120.5821 
 433   0.0000       4.468470       121.5932 
 434   0.0000       4.494103       122.2908 
 435   0.0000       4.528095       123.2157 
 436   0.0000       4.531632       123.3120 
 437   0.0000       4.544813       123.6706 
 438   0.0000       4.564509       124.2066 
 439   0.0000       4.575508       124.5059 
 440   0.0000       4.588396       124.8566 
 441   0.0000       4.610623       125.4614 
 442   0.0000       4.626853       125.9031 
 443   0.0000       4.645975       126.4234 
 444   0.0000       4.664410       126.9251 
 445   0.0000       4.667566       127.0109 
 446   0.0000       4.692260       127.6829 
 447   0.0000       4.714240       128.2810 
 448   0.0000       4.718035       128.3843 
 449   0.0000       4.731654       128.7549 
 450   0.0000       4.747926       129.1976 
 451   0.0000       4.757704       129.4637 
 452   0.0000       4.767925       129.7418 
 453   0.0000       4.792970       130.4233 
 454   0.0000       4.807573       130.8207 
 455   0.0000       4.837977       131.6480 
 456   0.0000       4.864446       132.3683 
 457   0.0000       4.892003       133.1182 
 458   0.0000       4.909713       133.6001 
 459   0.0000       4.917782       133.8196 
 460   0.0000       4.926677       134.0617 
 461   0.0000       4.953633       134.7952 
 462   0.0000       4.972613       135.3117 
 463   0.0000       5.011940       136.3818 
 464   0.0000       5.018829       136.5693 
 465   0.0000       5.043151       137.2311 
 466   0.0000       5.067078       137.8822 
 467   0.0000       5.083393       138.3262 
 468   0.0000       5.094482       138.6279 
 469   0.0000       5.097485       138.7096 
 470   0.0000       5.106583       138.9572 
 471   0.0000       5.125223       139.4644 
 472   0.0000       5.144934       140.0008 
 473   0.0000       5.154344       140.2568 
 474   0.0000       5.169546       140.6705 
 475   0.0000       5.172482       140.7504 
 476   0.0000       5.190192       141.2323 
 477   0.0000       5.201289       141.5343 
 478   0.0000       5.216524       141.9488 
 479   0.0000       5.222962       142.1240 
 480   0.0000       5.239881       142.5844 
 481   0.0000       5.268456       143.3620 
 482   0.0000       5.278845       143.6447 
 483   0.0000       5.291774       143.9965 
 484   0.0000       5.299879       144.2170 
 485   0.0000       5.315176       144.6333 
 486   0.0000       5.329095       145.0121 
 487   0.0000       5.341495       145.3495 
 488   0.0000       5.353467       145.6752 
 489   0.0000       5.378076       146.3449 
 490   0.0000       5.423603       147.5838 
 491   0.0000       5.454756       148.4315 
 492   0.0000       5.457135       148.4962 
 493   0.0000       5.482553       149.1878 
 494   0.0000       5.509868       149.9311 
 495   0.0000       5.511439       149.9739 
 496   0.0000       5.536853       150.6654 
 497   0.0000       5.555957       151.1853 
 498   0.0000       5.560220       151.3013 
 499   0.0000       5.583112       151.9242 
 500   0.0000       5.591654       152.1567 
 501   0.0000       5.617706       152.8656 
 502   0.0000       5.627986       153.1453 
 503   0.0000       5.644096       153.5837 
 504   0.0000       5.654417       153.8645 
 505   0.0000       5.668192       154.2393 
 506   0.0000       5.689349       154.8151 
 507   0.0000       5.713838       155.4814 
 508   0.0000       5.752696       156.5388 
 509   0.0000       5.762912       156.8168 
 510   0.0000       5.792156       157.6126 
 511   0.0000       5.836548       158.8206 
 512   0.0000       5.854293       159.3034 
 513   0.0000       5.879331       159.9847 
 514   0.0000       5.910859       160.8427 
 515   0.0000       5.913315       160.9095 
 516   0.0000       5.944097       161.7471 
 517   0.0000       5.978437       162.6815 
 518   0.0000       6.014209       163.6550 
 519   0.0000       6.065449       165.0493 
 520   0.0000       6.096096       165.8832 
 521   0.0000       6.122550       166.6030 
 522   0.0000       6.141919       167.1301 
 523   0.0000       6.218794       169.2220 
 524   0.0000       6.300073       171.4337 
 525   0.0000       6.327169       172.1710 
 526   0.0000       6.340575       172.5358 
 527   0.0000       6.361416       173.1029 
 528   0.0000       6.371786       173.3851 
 529   0.0000       6.384201       173.7230 
 530   0.0000       6.414151       174.5379 
 531   0.0000       6.425163       174.8376 
 532   0.0000       6.440716       175.2608 
 533   0.0000       6.454629       175.6394 
 534   0.0000       6.484763       176.4594 
 535   0.0000       6.485491       176.4792 
 536   0.0000       6.552169       178.2936 
 537   0.0000       6.564143       178.6194 
 538   0.0000       6.576610       178.9587 
 539   0.0000       6.612252       179.9285 
 540   0.0000       6.645183       180.8246 
 541   0.0000       6.729294       183.1134 
 542   0.0000       6.732647       183.2046 
 543   0.0000       6.764452       184.0701 
 544   0.0000       6.806083       185.2029 
 545   0.0000       6.830946       185.8795 
 546   0.0000       6.846809       186.3111 
 547   0.0000       6.865791       186.8277 
 548   0.0000       6.885953       187.3763 
 549   0.0000       7.000925       190.5048 
 550   0.0000       7.038720       191.5333 
 551   0.0000       7.039557       191.5561 
 552   0.0000       7.116050       193.6376 
 553   0.0000       7.125477       193.8941 
 554   0.0000       7.134471       194.1388 
 555   0.0000       7.359708       200.2678 
 556   0.0000       7.410076       201.6384 
 557   0.0000       7.524654       204.7563 
 558   0.0000      23.117003       629.0456 
 559   0.0000      23.149326       629.9252 
 560   0.0000      23.222358       631.9125 
 561   0.0000      23.252129       632.7226 
 562   0.0000      23.288655       633.7165 
 563   0.0000      23.355640       635.5393 
 564   0.0000      32.709430       890.0688 
 565   0.0000      32.775549       891.8680 
 566   0.0000      32.847691       893.8311 
 567   0.0000      43.867037      1193.6828 
 568   0.0000      43.886631      1194.2159 
 569   0.0000      43.961377      1196.2499 
 570   0.0000      43.972842      1196.5619 

                    ********************************
                    * MULLIKEN POPULATION ANALYSIS *
                    ********************************

-----------------------
MULLIKEN ATOMIC CHARGES
-----------------------
   0 N :   -0.248694
   1 H :    0.212480
   2 C :   -0.089974
   3 C :    0.282869
   4 H :    0.140259
   5 H :    0.147093
   6 O :   -0.267042
   7 C :    0.337729
   8 C :   -0.097245
   9 O :   -0.464086
  10 N :   -0.177390
  11 H :    0.164999
  12 H :    0.151640
  13 H :    0.182809
  14 C :    0.215832
  15 C :   -0.143101
  16 O :   -0.328484
  17 H :    0.173715
  18 H :    0.149204
  19 O :   -0.224147
  20 H :    0.211860
  21 N :   -0.068931
  22 H :    0.240110
  23 H :    0.244894
  24 H :    0.253602
Sum of atomic charges:    1.0000000

--------------------------------
MULLIKEN REDUCED ORBITAL CHARGES
--------------------------------
  0 N s       :     3.445236  s :     3.445236
      pz      :     1.074928  p :     3.743559
      px      :     1.349307
      py      :     1.319324
      dz2     :     0.014831  d :     0.056175
      dxz     :     0.014164
      dyz     :     0.015257
      dx2y2   :     0.004238
      dxy     :     0.007687
      f0      :     0.000623  f :     0.003724
      f+1     :     0.000644
      f-1     :     0.000702
      f+2     :     0.000340
      f-2     :     0.000535
      f+3     :     0.000439
      f-3     :     0.000439
  1 H s       :     0.724407  s :     0.724407
      pz      :     0.013478  p :     0.057962
      px      :     0.025030
      py      :     0.019454
      dz2     :     0.000728  d :     0.005150
      dxz     :     0.000725
      dyz     :     0.000844
      dx2y2   :     0.001864
      dxy     :     0.000989
  2 C s       :     3.188302  s :     3.188302
      pz      :     0.724300  p :     2.790525
      px      :     1.095429
      py      :     0.970796
      dz2     :     0.024775  d :     0.103749
      dxz     :     0.024474
      dyz     :     0.022549
      dx2y2   :     0.013153
      dxy     :     0.018797
      f0      :     0.002034  f :     0.007398
      f+1     :     0.001517
      f-1     :     0.001659
      f+2     :     0.000563
      f-2     :     0.000508
      f+3     :     0.000570
      f-3     :     0.000547
  3 C s       :     3.083631  s :     3.083631
      pz      :     0.784915  p :     2.341802
      px      :     0.719086
      py      :     0.837801
      dz2     :     0.056248  d :     0.268183
      dxz     :     0.040352
      dyz     :     0.059455
      dx2y2   :     0.064246
      dxy     :     0.047882
      f0      :     0.002976  f :     0.023515
      f+1     :     0.003466
      f-1     :     0.002952
      f+2     :     0.003739
      f-2     :     0.004087
      f+3     :     0.004059
      f-3     :     0.002237
  4 H s       :     0.824687  s :     0.824687
      pz      :     0.007083  p :     0.032926
      px      :     0.017111
      py      :     0.008732
      dz2     :     0.000160  d :     0.002128
      dxz     :     0.000767
      dyz     :     0.000077
      dx2y2   :     0.000474
      dxy     :     0.000650
  5 H s       :     0.817681  s :     0.817681
      pz      :     0.009587  p :     0.033231
      px      :     0.012056
      py      :     0.011588
      dz2     :     0.000528  d :     0.001995
      dxz     :     0.000247
      dyz     :     0.000326
      dx2y2   :     0.000633
      dxy     :     0.000260
  6 O s       :     3.792117  s :     3.792117
      pz      :     1.345960  p :     4.439538
      px      :     1.446694
      py      :     1.646884
      dz2     :     0.010811  d :     0.033413
      dxz     :     0.008167
      dyz     :     0.005283
      dx2y2   :     0.004197
      dxy     :     0.004955
      f0      :     0.000382  f :     0.001975
      f+1     :     0.000433
      f-1     :     0.000155
[...]
     53       0.001828  -0.000138  -0.133043  -0.461774   0.005539   0.001279
     54      -0.000228  -0.001583   0.177788   0.369265  -0.013459   0.006208
     55      -0.000458  -0.002067   0.234309   0.492884  -0.011359   0.007404
     56       0.000016   0.000012  -0.004070  -0.016258  -0.003871   0.001585
     57       0.000014  -0.000281  -0.000073   0.000030  -0.000008  -0.000015
     58       0.000038  -0.000214  -0.000063   0.000028   0.000002  -0.000010
     59      -0.000006  -0.000095   0.000094  -0.000033   0.000020   0.000006
     60       0.000238  -0.001151   0.001480  -0.000539   0.000328   0.000294
     61      -0.000151  -0.002209   0.000733  -0.000298   0.000056   0.000028
     62       0.000103  -0.000771  -0.000775   0.000282  -0.000151   0.000014
     63       0.000451  -0.000744   0.043161  -0.015267   0.059473   0.014689
     64      -0.000169   0.000247  -0.014487   0.007094   0.023648  -0.075517
     65      -0.000460   0.000756  -0.044819   0.017299   0.002309   0.020301
     66       0.000353  -0.000520   0.036662  -0.015714  -0.175359  -0.421155
     67      -0.000679   0.001171  -0.078332   0.032945   0.328662   0.758567
     68       0.000406  -0.000633   0.039569  -0.017340  -0.128510  -0.296906
     69       0.000519  -0.000695   0.044138  -0.029101  -0.599677   0.263167
     70       0.000430  -0.000630   0.044317  -0.033947  -0.687597   0.283333
     71      -0.000053   0.000178  -0.007490   0.012058   0.038435  -0.014535
     72      -0.006607   0.011013  -0.656127   0.254392  -0.049215  -0.037608
     73       0.002153  -0.003629   0.222596  -0.088826   0.024105   0.001776
     74       0.006287  -0.010327   0.608021  -0.246151   0.057515   0.037899
                 72         73         74    
      0      -0.000701  -0.043191  -0.000159
      1       0.000906   0.052853  -0.000013
      2      -0.000585  -0.028341   0.000358
      3       0.010002   0.574439  -0.000290
      4      -0.012672  -0.717153   0.003827
      5       0.006794   0.386998  -0.002221
      6       0.000015   0.000164   0.000429
      7       0.000011   0.000352   0.000055
      8       0.000058   0.001516   0.000251
      9      -0.000043   0.000010  -0.001398
     10      -0.000059  -0.000173   0.001709
     11       0.000023   0.000303  -0.002135
     12       0.000010   0.003674   0.000009
     13       0.000080   0.001291   0.001078
     14       0.000023   0.002563  -0.001541
     15       0.000139   0.004286  -0.000079
     16      -0.000190  -0.006389  -0.000254
     17      -0.000192  -0.004570  -0.000039
     18       0.000008  -0.000010   0.000881
     19       0.000015  -0.000005  -0.000318
     20      -0.000008  -0.000001   0.000880
     21      -0.000119   0.000140   0.000465
     22       0.000107  -0.000021  -0.000475
     23      -0.000122  -0.001533  -0.000105
     24       0.000894  -0.000117   0.000054
     25      -0.000095   0.000202  -0.000028
     26      -0.001121   0.000111   0.000010
     27       0.000101   0.000934  -0.000176
     28      -0.000135  -0.000982   0.000225
     29      -0.000050   0.000178  -0.000130
     30       0.032654  -0.000582  -0.000055
     31       0.065403  -0.001131   0.000005
     32      -0.002822   0.000046  -0.000003
     33      -0.001757   0.000254  -0.000035
     34      -0.010247  -0.001484   0.000124
     35       0.001086   0.000530  -0.000040
     36      -0.005982   0.000642  -0.000375
     37       0.000151  -0.000614   0.000023
     38       0.000995   0.000256  -0.000448
     39      -0.429624   0.007671   0.000139
     40      -0.897711   0.015762   0.000049
     41       0.060478  -0.000855   0.000042
     42      -0.001176  -0.000033   0.000062
     43       0.001314  -0.000019   0.000011
     44      -0.000790   0.000066   0.000010
     45       0.000309   0.000003   0.000001
     46       0.000251  -0.000005   0.000001
     47       0.000190   0.000011   0.000008
     48      -0.000726   0.000039  -0.000021
     49      -0.000765   0.000021  -0.000009
     50      -0.000042  -0.000027  -0.000006
     51      -0.001221   0.000032  -0.000023
     52       0.000142   0.000002   0.000015
     53      -0.000029   0.000068  -0.000024
     54      -0.005257   0.000082  -0.000001
     55      -0.004728   0.000173  -0.000016
     56      -0.000299   0.000045   0.000002
     57       0.000020  -0.000129  -0.035608
     58       0.000037   0.000113   0.027035
     59      -0.000007  -0.000125  -0.042959
     60      -0.000081   0.002905   0.562538
     61      -0.000336  -0.001372  -0.447309
     62       0.000110   0.001995   0.692521
     63       0.000069   0.000404  -0.000013
     64       0.000307  -0.000207   0.000016
     65      -0.000043  -0.000175  -0.000011
     66       0.001090  -0.001223   0.000038
     67      -0.002208   0.002201  -0.000134
     68       0.000947  -0.000934   0.000132
     69      -0.001710  -0.000894   0.000025
     70      -0.002431  -0.000815  -0.000023
     71       0.000352   0.000062   0.000065
     72       0.000332  -0.004457   0.000123
     73      -0.000303   0.002074  -0.000140
     74       0.000349   0.003402   0.000173


-----------
IR SPECTRUM
-----------

 Mode   freq       eps      Int      T**2         TX        TY        TZ
       cm**-1   L/(mol*cm) km/mol    a.u.
----------------------------------------------------------------------------
  6:     39.80   0.003494   17.66  0.027401  ( 0.118350 -0.014280 -0.114848)
  7:     43.04   0.000237    1.20  0.001717  ( 0.040383 -0.005699 -0.007302)
  8:     58.59   0.003873   19.57  0.020628  ( 0.053343  0.095414  0.093161)
  9:     83.05   0.003815   19.28  0.014332  (-0.095110 -0.009321  0.072109)
 10:     91.58   0.000089    0.45  0.000303  (-0.002632 -0.001973  0.017088)
 11:    125.41   0.004720   23.85  0.011744  ( 0.017693 -0.073108 -0.078013)
 12:    162.15   0.001769    8.94  0.003405  (-0.047606 -0.031154  0.012979)
 13:    226.42   0.007763   39.23  0.010700  ( 0.089096 -0.028954 -0.043853)
 14:    260.91   0.000522    2.64  0.000624  (-0.023842  0.003213  0.006752)
 15:    272.95   0.007147   36.12  0.008171  ( 0.028438 -0.053940  0.066730)
 16:    288.78   0.005909   29.86  0.006385  ( 0.063673 -0.018340  0.044661)
 17:    308.47   0.000843    4.26  0.000853  ( 0.006121 -0.008321  0.027324)
 18:    356.53   0.001977    9.99  0.001730  (-0.003034 -0.029884 -0.028778)
 19:    409.93   0.010045   50.76  0.007647  (-0.068112  0.038283  0.039266)
 20:    433.98   0.010775   54.45  0.007748  ( 0.054594 -0.027758 -0.063223)
 21:    473.01   0.018167   91.81  0.011986  ( 0.063214 -0.023077 -0.086355)
 22:    519.71   0.007266   36.72  0.004363  ( 0.048258  0.044827  0.004948)
 23:    529.98   0.005734   28.97  0.003376  (-0.047153  0.024502  0.023499)
 24:    584.24   0.003771   19.06  0.002014  (-0.034648 -0.027300  0.008261)
 25:    592.16   0.007868   39.76  0.004146  (-0.046821 -0.015231 -0.041499)
 26:    607.76   0.004172   21.08  0.002142  (-0.012362 -0.001963  0.044556)
 27:    676.31   0.012750   64.43  0.005883  ( 0.045126  0.018303  0.059258)
 28:    712.83   0.002014   10.18  0.000882  (-0.008260 -0.003514 -0.028302)
 29:    732.53   0.002186   11.05  0.000931  ( 0.016561 -0.012947  0.022124)
 30:    770.99   0.003281   16.58  0.001328  ( 0.000041  0.000590 -0.036435)
 31:    872.20   0.003012   15.22  0.001078  (-0.026724 -0.009177 -0.016707)
 32:    877.78   0.001798    9.09  0.000639  (-0.007356  0.024166 -0.001071)
 33:    907.25   0.002251   11.38  0.000774  (-0.004902  0.000083 -0.027391)
 34:    911.22   0.005603   28.32  0.001919  ( 0.041232  0.001476 -0.014717)
 35:    981.48   0.001176    5.94  0.000374  ( 0.017436 -0.003545  0.007571)
 36:   1043.50   0.002464   12.45  0.000737  (-0.018411  0.013988  0.014225)
 37:   1055.67   0.001385    7.00  0.000409  (-0.020036  0.001999  0.002017)
 38:   1074.50   0.001556    7.86  0.000452  (-0.017485 -0.010894  0.005238)
 39:   1094.53   0.001356    6.85  0.000387  ( 0.017899 -0.001588  0.007979)
 40:   1130.89   0.011407   57.65  0.003148  ( 0.032089 -0.044091 -0.013192)
 41:   1148.88   0.002568   12.98  0.000698  ( 0.020889 -0.001742 -0.016071)
 42:   1197.88   0.000647    3.27  0.000168  ( 0.010624 -0.001780 -0.007239)
 43:   1267.03   0.018930   95.67  0.004662  (-0.050287  0.001555  0.046165)
 44:   1281.22   0.004825   24.38  0.001175  ( 0.019706  0.016351 -0.022793)
 45:   1289.48   0.011968   60.48  0.002896  ( 0.050538  0.018142  0.003623)
 46:   1301.85   0.007263   36.71  0.001741  ( 0.024251 -0.032590  0.009535)
 47:   1338.69   0.003919   19.80  0.000913  ( 0.017554 -0.012927 -0.020934)
 48:   1348.60   0.033474  169.16  0.007746  (-0.078332 -0.039265  0.008253)
 49:   1374.10   0.022621  114.32  0.005137  (-0.030856 -0.058941 -0.026668)
 50:   1396.90   0.009487   47.95  0.002119  ( 0.035402  0.012816  0.026493)
 51:   1425.84   0.000248    1.25  0.000054  (-0.004198  0.004473 -0.004089)
 52:   1472.84   0.003450   17.44  0.000731  (-0.000823  0.020418 -0.017705)
 53:   1480.74   0.002891   14.61  0.000609  (-0.020921 -0.003038  0.012746)
 54:   1502.14   0.003169   16.01  0.000658  (-0.001316  0.021111  0.014521)
 55:   1527.99   0.026772  135.30  0.005468  (-0.056404  0.019037 -0.043862)
 56:   1568.98   0.039170  197.95  0.007791  (-0.085454  0.017833  0.013056)
 57:   1581.78   0.043907  221.89  0.008662  (-0.020057  0.038857  0.082159)
 58:   1622.66   0.012120   61.25  0.002331  ( 0.006719  0.047658  0.003800)
 59:   1682.83   0.021840  110.37  0.004050  (-0.045613  0.043159  0.010328)
 60:   1743.12   0.045575  230.32  0.008159  (-0.049035  0.073093  0.020304)
 61:   1818.92   0.043203  218.33  0.007412  ( 0.070537  0.045600 -0.018901)
 62:   1906.05   0.060381  305.14  0.009886  (-0.061323  0.027894 -0.073124)
 63:   3112.84   0.000681    3.44  0.000068  ( 0.001133 -0.002890 -0.007656)
 64:   3116.56   0.001430    7.23  0.000143  ( 0.008066 -0.001867 -0.008638)
 65:   3131.70   0.000422    2.13  0.000042  ( 0.000841 -0.005073 -0.003955)
 66:   3169.92   0.000154    0.78  0.000015  ( 0.000653  0.003566 -0.001424)
 67:   3171.61   0.000229    1.16  0.000023  ( 0.004104  0.002317 -0.000592)
 68:   3193.76   0.091732  463.58  0.008963  (-0.069425  0.041831  0.048923)
 69:   3202.80   0.015472   78.19  0.001508  ( 0.026998 -0.018003 -0.021320)
 70:   3465.54   0.018425   93.11  0.001659  (-0.039980 -0.007767  0.000631)
 71:   3549.40   0.023705  119.80  0.002084  (-0.013801  0.042340 -0.010050)
 72:   3655.93   0.008923   45.09  0.000762  (-0.017364 -0.021311 -0.002453)
 73:   3661.56   0.014334   72.44  0.001222  ( 0.021902 -0.027042  0.003271)
 74:   3855.98   0.010432   52.72  0.000844  ( 0.019012 -0.004999  0.021396)

* The epsilon (eps) is given for a Dirac delta lineshape.
** The dipole moment derivative (T) already includes vibrational overlap.

The first frequency considered to be a vibration is 6
The total number of vibrations considered is 69


--------------------------
THERMOCHEMISTRY AT 298.15K
--------------------------

Temperature         ... 298.15 K
Pressure            ... 1.00 atm
Total Mass          ... 190.18 AMU

Throughout the following assumptions are being made:
  (1) The electronic state is orbitally nondegenerate
  (2) There are no thermally accessible electronically excited states
  (3) Hindered rotations indicated by low frequency modes are not
      treated as such but are treated as vibrations and this may
      cause some error
  (4) All equations used are the standard statistical mechanics
      equations for an ideal gas
  (5) All vibrations are strictly harmonic

freq.      39.80  E(vib)   ...       0.54 
freq.      43.04  E(vib)   ...       0.53 
freq.      58.59  E(vib)   ...       0.51 
freq.      83.05  E(vib)   ...       0.48 
freq.      91.58  E(vib)   ...       0.47 
freq.     125.41  E(vib)   ...       0.43 
freq.     162.15  E(vib)   ...       0.39 
freq.     226.42  E(vib)   ...       0.33 
freq.     260.91  E(vib)   ...       0.30 
freq.     272.95  E(vib)   ...       0.29 
freq.     288.78  E(vib)   ...       0.27 
freq.     308.47  E(vib)   ...       0.26 
freq.     356.53  E(vib)   ...       0.22 
freq.     409.93  E(vib)   ...       0.19 
freq.     433.98  E(vib)   ...       0.17 
freq.     473.01  E(vib)   ...       0.15 
freq.     519.71  E(vib)   ...       0.13 
freq.     529.98  E(vib)   ...       0.13 
freq.     584.24  E(vib)   ...       0.11 
freq.     592.16  E(vib)   ...       0.10 
freq.     607.76  E(vib)   ...       0.10 
freq.     676.31  E(vib)   ...       0.08 
freq.     712.83  E(vib)   ...       0.07 
freq.     732.53  E(vib)   ...       0.06 
freq.     770.99  E(vib)   ...       0.05 
freq.     872.20  E(vib)   ...       0.04 
freq.     877.78  E(vib)   ...       0.04 
freq.     907.25  E(vib)   ...       0.03 
freq.     911.22  E(vib)   ...       0.03 
freq.     981.48  E(vib)   ...       0.02 
freq.    1043.50  E(vib)   ...       0.02 
freq.    1055.67  E(vib)   ...       0.02 
freq.    1074.50  E(vib)   ...       0.02 
freq.    1094.53  E(vib)   ...       0.02 
freq.    1130.89  E(vib)   ...       0.01 
freq.    1148.88  E(vib)   ...       0.01 
freq.    1197.88  E(vib)   ...       0.01 
freq.    1267.03  E(vib)   ...       0.01 
freq.    1281.22  E(vib)   ...       0.01 
freq.    1289.48  E(vib)   ...       0.01 
freq.    1301.85  E(vib)   ...       0.01 
freq.    1338.69  E(vib)   ...       0.01 
freq.    1348.60  E(vib)   ...       0.01 
freq.    1374.10  E(vib)   ...       0.01 
freq.    1396.90  E(vib)   ...       0.00 
freq.    1425.84  E(vib)   ...       0.00 
freq.    1472.84  E(vib)   ...       0.00 
freq.    1480.74  E(vib)   ...       0.00 
freq.    1502.14  E(vib)   ...       0.00 
freq.    1527.99  E(vib)   ...       0.00 
freq.    1568.98  E(vib)   ...       0.00 
freq.    1581.78  E(vib)   ...       0.00 
freq.    1622.66  E(vib)   ...       0.00 
freq.    1682.83  E(vib)   ...       0.00 
freq.    1743.12  E(vib)   ...       0.00 
freq.    1818.92  E(vib)   ...       0.00 
freq.    1906.05  E(vib)   ...       0.00 
freq.    3112.84  E(vib)   ...       0.00 
freq.    3116.56  E(vib)   ...       0.00 
freq.    3131.70  E(vib)   ...       0.00 
freq.    3169.92  E(vib)   ...       0.00 
freq.    3171.61  E(vib)   ...       0.00 
freq.    3193.76  E(vib)   ...       0.00 
freq.    3202.80  E(vib)   ...       0.00 
freq.    3465.54  E(vib)   ...       0.00 
freq.    3549.40  E(vib)   ...       0.00 
freq.    3655.93  E(vib)   ...       0.00 
freq.    3661.56  E(vib)   ...       0.00 
freq.    3855.98  E(vib)   ...       0.00 

------------
INNER ENERGY
------------

The inner energy is: U= E(el) + E(ZPE) + E(vib) + E(rot) + E(trans)
    E(el)   - is the total energy from the electronic structure calculation
              = E(kin-el) + E(nuc-el) + E(el-el) + E(nuc-nuc)
    E(ZPE)  - the the zero temperature vibrational energy from the frequency calculation
    E(vib)  - the the finite temperature correction to E(ZPE) due to population
              of excited vibrational states
    E(rot)  - is the rotational thermal energy
    E(trans)- is the translational thermal energy

Summary of contributions to the inner energy U:
Electronic energy                ...   -701.33219037 Eh
Zero point energy                ...      0.20930944 Eh     131.34 kcal/mol
Thermal vibrational correction   ...      0.01069943 Eh       6.71 kcal/mol
Thermal rotational correction    ...      0.00141627 Eh       0.89 kcal/mol
Thermal translational correction ...      0.00141627 Eh       0.89 kcal/mol
-----------------------------------------------------------------------
Total thermal energy                   -701.10934895 Eh


Summary of corrections to the electronic energy:
(perhaps to be used in another calculation)
Total thermal correction                  0.01353197 Eh       8.49 kcal/mol
Non-thermal (ZPE) correction              0.20930944 Eh     131.34 kcal/mol
-----------------------------------------------------------------------
Total correction                          0.22284142 Eh     139.83 kcal/mol


--------
ENTHALPY
--------

The enthalpy is H = U + kB*T
                kB is Boltzmann's constant
Total free energy                 ...   -701.10934895 Eh 
Thermal Enthalpy correction       ...      0.00094421 Eh       0.59 kcal/mol
-----------------------------------------------------------------------
Total Enthalpy                    ...   -701.10840474 Eh


Note: Only C1 symmetry has been detected, increase convergence thresholds 
      if your molecule has a higher symmetry. Symmetry factor of 1.0 is   
      used for the rotational entropy correction. 
 

Note: Rotational entropy computed according to Herzberg 
Infrared and Raman Spectra, Chapter V,1, Van Nostrand Reinhold, 1945 
Point Group:  C1, Symmetry Number:   1  
Rotational constants in cm-1:     0.046332     0.015203     0.013215 

Vibrational entropy computed according to the QRRHO of S. Grimme
Chem.Eur.J. 2012 18 9955


-------
ENTROPY
-------

The entropy contributions are T*S = T*(S(el)+S(vib)+S(rot)+S(trans))
     S(el)   - electronic entropy
     S(vib)  - vibrational entropy
     S(rot)  - rotational entropy
     S(trans)- translational entropy
The entropies will be listed as multiplied by the temperature to get
units of energy

Electronic entropy                ...      0.00000000 Eh      0.00 kcal/mol
Vibrational entropy               ...      0.01889298 Eh     11.86 kcal/mol
Rotational entropy                ...      0.01497978 Eh      9.40 kcal/mol
Translational entropy             ...      0.01978162 Eh     12.41 kcal/mol
-----------------------------------------------------------------------
Final entropy term                ...      0.05365438 Eh     33.67 kcal/mol

In case the symmetry of your molecule has not been determined correctly
or in case you have a reason to use a different symmetry number we print 
out the resulting rotational entropy values for sn=1,12 :
 --------------------------------------------------------
|  sn= 1 | S(rot)=       0.01497978 Eh      9.40 kcal/mol|
|  sn= 2 | S(rot)=       0.01432533 Eh      8.99 kcal/mol|
|  sn= 3 | S(rot)=       0.01394249 Eh      8.75 kcal/mol|
|  sn= 4 | S(rot)=       0.01367087 Eh      8.58 kcal/mol|
|  sn= 5 | S(rot)=       0.01346018 Eh      8.45 kcal/mol|
|  sn= 6 | S(rot)=       0.01328804 Eh      8.34 kcal/mol|
|  sn= 7 | S(rot)=       0.01314249 Eh      8.25 kcal/mol|
|  sn= 8 | S(rot)=       0.01301641 Eh      8.17 kcal/mol|
|  sn= 9 | S(rot)=       0.01290520 Eh      8.10 kcal/mol|
|  sn=10 | S(rot)=       0.01280572 Eh      8.04 kcal/mol|
|  sn=11 | S(rot)=       0.01271573 Eh      7.98 kcal/mol|
|  sn=12 | S(rot)=       0.01263358 Eh      7.93 kcal/mol|
 --------------------------------------------------------


-------------------
GIBBS FREE ENERGY
-------------------

The Gibbs free energy is G = H - T*S

Total enthalpy                    ...   -701.10840474 Eh 
Total entropy correction          ...     -0.05365438 Eh    -33.67 kcal/mol
-----------------------------------------------------------------------
Final Gibbs free energy         ...   -701.16205912 Eh

For completeness - the Gibbs free energy minus the electronic energy
G-E(el)                           ...      0.17013125 Eh    106.76 kcal/mol


Timings for individual modules:

Sum of individual times         ...     7862.615 sec (= 131.044 min)
GTO integral calculation        ...       24.031 sec (=   0.401 min)   0.3 %
SCF iterations                  ...     2296.959 sec (=  38.283 min)  29.2 %
SCF Gradient evaluation         ...      483.279 sec (=   8.055 min)   6.1 %
Geometry relaxation             ...        1.330 sec (=   0.022 min)   0.0 %
Analytical frequency calculation...     4551.944 sec (=  75.866 min)  57.9 %
CHELPG charge generation        ...      505.072 sec (=   8.418 min)   6.4 %
                             ****ORCA TERMINATED NORMALLY****
TOTAL RUN TIME: 0 days 2 hours 11 minutes 31 seconds 969 msec
