
Lmod is automatically replacing "intel/2020.1.217" with "gcc/10.3.0".


Due to MODULEPATH changes, the following have been reloaded:
  1) blis/0.8.1     2) flexiblas/3.0.4

The following have been reloaded with a version change:
  1) gcccore/.9.3.0 => gcccore/.10.3.0        3) openmpi/4.0.3 => openmpi/4.1.1
  2) libfabric/1.10.1 => libfabric/1.12.1     4) ucx/1.8.0 => ucx/1.9.0

To execute ORCA, run: 
   ${EBROOTORCA}/orca orca.inp > orca.out

                                 *****************
                                 * O   R   C   A *
                                 *****************

                                            #,                                       
                                            ###                                      
                                            ####                                     
                                            #####                                    
                                            ######                                   
                                           ########,                                 
                                     ,,################,,,,,                         
                               ,,#################################,,                 
                          ,,##########################################,,             
                       ,#########################################, ''#####,          
                    ,#############################################,,   '####,        
                  ,##################################################,,,,####,       
                ,###########''''           ''''###############################       
              ,#####''   ,,,,##########,,,,          '''####'''          '####       
            ,##' ,,,,###########################,,,                        '##       
           ' ,,###''''                  '''############,,,                           
         ,,##''                                '''############,,,,        ,,,,,,###''
      ,#''                                            '''#######################'''  
     '                                                          ''''####''''         
             ,#######,   #######,   ,#######,      ##                                
            ,#'     '#,  ##    ##  ,#'     '#,    #''#        ######   ,####,        
            ##       ##  ##   ,#'  ##            #'  '#       #        #'  '#        
            ##       ##  #######   ##           ,######,      #####,   #    #        
            '#,     ,#'  ##    ##  '#,     ,#' ,#      #,         ##   #,  ,#        
             '#######'   ##     ##  '#######'  #'      '#     #####' # '####'        



                  #######################################################
                  #                        -***-                        #
                  #          Department of theory and spectroscopy      #
                  #    Directorship and core code : Frank Neese         #
                  #        Max Planck Institute fuer Kohlenforschung    #
                  #                Kaiser Wilhelm Platz 1               #
                  #                 D-45470 Muelheim/Ruhr               #
                  #                      Germany                        #
                  #                                                     #
                  #                  All rights reserved                #
                  #                        -***-                        #
                  #######################################################


                         Program Version 5.0.2 -  RELEASE  -


 With contributions from (in alphabetic order):
   Daniel Aravena         : Magnetic Suceptibility
   Michael Atanasov       : Ab Initio Ligand Field Theory (pilot matlab implementation)
   Alexander A. Auer      : GIAO ZORA, VPT2 properties, NMR spectrum
   Ute Becker             : Parallelization
   Giovanni Bistoni       : ED, misc. LED, open-shell LED, HFLD
   Martin Brehm           : Molecular dynamics
   Dmytro Bykov           : SCF Hessian
   Vijay G. Chilkuri      : MRCI spin determinant printing, contributions to CSF-ICE
   Dipayan Datta          : RHF DLPNO-CCSD density
   Achintya Kumar Dutta   : EOM-CC, STEOM-CC
   Dmitry Ganyushin       : Spin-Orbit,Spin-Spin,Magnetic field MRCI
   Miquel Garcia          : C-PCM and meta-GGA Hessian, CC/C-PCM, Gaussian charge scheme
   Yang Guo               : DLPNO-NEVPT2, F12-NEVPT2, CIM, IAO-localization
   Andreas Hansen         : Spin unrestricted coupled pair/coupled cluster methods
   Benjamin Helmich-Paris : MC-RPA, TRAH-SCF, COSX integrals
   Lee Huntington         : MR-EOM, pCC
   Robert Izsak           : Overlap fitted RIJCOSX, COSX-SCS-MP3, EOM
   Marcus Kettner         : VPT2
   Christian Kollmar      : KDIIS, OOCD, Brueckner-CCSD(T), CCSD density, CASPT2, CASPT2-K
   Simone Kossmann        : Meta GGA functionals, TD-DFT gradient, OOMP2, MP2 Hessian
   Martin Krupicka        : Initial AUTO-CI
   Lucas Lang             : DCDCAS
   Marvin Lechner         : AUTO-CI (C++ implementation), FIC-MRCC
   Dagmar Lenk            : GEPOL surface, SMD
   Dimitrios Liakos       : Extrapolation schemes; Compound Job, initial MDCI parallelization
   Dimitrios Manganas     : Further ROCIS development; embedding schemes
   Dimitrios Pantazis     : SARC Basis sets
   Anastasios Papadopoulos: AUTO-CI, single reference methods and gradients
   Taras Petrenko         : DFT Hessian,TD-DFT gradient, ASA, ECA, R-Raman, ABS, FL, XAS/XES, NRVS
   Peter Pinski           : DLPNO-MP2, DLPNO-MP2 Gradient
   Christoph Reimann      : Effective Core Potentials
   Marius Retegan         : Local ZFS, SOC
   Christoph Riplinger    : Optimizer, TS searches, QM/MM, DLPNO-CCSD(T), (RO)-DLPNO pert. Triples
   Tobias Risthaus        : Range-separated hybrids, TD-DFT gradient, RPA, STAB
   Michael Roemelt        : Original ROCIS implementation
   Masaaki Saitow         : Open-shell DLPNO-CCSD energy and density
   Barbara Sandhoefer     : DKH picture change effects
   Avijit Sen             : IP-ROCIS
   Kantharuban Sivalingam : CASSCF convergence, NEVPT2, FIC-MRCI
   Bernardo de Souza      : ESD, SOC TD-DFT
   Georgi Stoychev        : AutoAux, RI-MP2 NMR, DLPNO-MP2 response
   Willem Van den Heuvel  : Paramagnetic NMR
   Boris Wezisla          : Elementary symmetry handling
   Frank Wennmohs         : Technical directorship


 We gratefully acknowledge several colleagues who have allowed us to
 interface, adapt or use parts of their codes:
   Stefan Grimme, W. Hujo, H. Kruse, P. Pracht,  : VdW corrections, initial TS optimization,
                  C. Bannwarth, S. Ehlert          DFT functionals, gCP, sTDA/sTD-DF
   Ed Valeev, F. Pavosevic, A. Kumar             : LibInt (2-el integral package), F12 methods
   Garnet Chan, S. Sharma, J. Yang, R. Olivares  : DMRG
   Ulf Ekstrom                                   : XCFun DFT Library
   Mihaly Kallay                                 : mrcc  (arbitrary order and MRCC methods)
   Jiri Pittner, Ondrej Demel                    : Mk-CCSD
   Frank Weinhold                                : gennbo (NPA and NBO analysis)
   Christopher J. Cramer and Donald G. Truhlar   : smd solvation model
   Lars Goerigk                                  : TD-DFT with DH, B97 family of functionals
   V. Asgeirsson, H. Jonsson                     : NEB implementation
   FAccTs GmbH                                   : IRC, NEB, NEB-TS, DLPNO-Multilevel, CI-OPT
                                                   MM, QMMM, 2- and 3-layer-ONIOM, Crystal-QMMM,
                                                   LR-CPCM, SF, NACMEs, symmetry and pop. for TD-DFT,
                                                   nearIR, NL-DFT gradient (VV10), updates on ESD,
                                                   ML-optimized integration grids
   S Lehtola, MJT Oliveira, MAL Marques          : LibXC Library
   Liviu Ungur et al                             : ANISO software


 Your calculation uses the libint2 library for the computation of 2-el integrals
 For citations please refer to: http://libint.valeyev.net

 Your ORCA version has been built with support for libXC version: 5.1.0
 For citations please refer to: https://tddft.org/programs/libxc/

 This ORCA versions uses:
   CBLAS   interface :  Fast vector & matrix operations
   LAPACKE interface :  Fast linear algebra routines
   SCALAPACK package :  Parallel linear algebra routines
   Shared memory     :  Shared parallel matrices
   BLAS/LAPACK       :  OpenBLAS 0.3.15  USE64BITINT DYNAMIC_ARCH NO_AFFINITY Zen SINGLE_THREADED
        Core in use  :  Zen
   Copyright (c) 2011-2014, The OpenBLAS Project


Your calculation utilizes the atom-pairwise dispersion correction
with the Becke-Johnson damping scheme (D3BJ)
Cite in your paper:
S.Grimme, S.Ehrlich, L.Goerigk, J Comput Chem, (2011), 32, 1456–1465 
S.Grimme, J.Antony, S.Ehrlich and H.Krieg, J.Chem.Phys., 132, (2010), 154104 
   

================================================================================

----- Orbital basis set information -----
Your calculation utilizes the basis: def2-TZVPP
   F. Weigend and R. Ahlrichs, Phys. Chem. Chem. Phys. 7, 3297 (2005).

----- AuxJ basis set information -----
Your calculation utilizes the auxiliary basis: def2/J
   F. Weigend, Phys. Chem. Chem. Phys. 8, 1057 (2006).

================================================================================
                                        WARNINGS
                       Please study these warnings very carefully!
================================================================================


WARNING: Geometry Optimization
  ===> : Switching off AutoStart
         For restart on a previous wavefunction, please use MOREAD

INFO   : the flag for use of the SHARK integral package has been found!

================================================================================
                                       INPUT FILE
================================================================================
NAME = GGG-H_tt_014_OptFreq.inp
|  1> # GGG-H_tt_014 (old 060)
|  2> ! wB97X-D3BJ Opt Freq def2-TZVPP def2/J RIJCOSX VeryTightSCF
|  3> ! PAL8 defgrid3 VeryTightOpt
|  4> 
|  5> %maxcore 4096
|  6> 
|  7> %geom
|  8>   MaxIter 300
|  9>   # MaxStep 0.1
| 10>   Calc_Hess true
| 11>   Recalc_Hess 10
| 12> end
| 13> 
| 14> %chelpg
| 15>   grid 0.1
| 16>   rmax 3.0
| 17> end
| 18> 
| 19> * xyz 1 1 
| 20>  N   -1.116990   +1.874904   -2.929130
| 21>  H   -1.806393   +2.524531   -2.527429
| 22>  C   -1.002496   +1.967249   -4.375749
| 23>  C   -2.000159   +3.027293   -4.828709
| 24>  H   +0.019004   +2.254701   -4.683837
| 25>  H   -1.229343   +1.001433   -4.861867
| 26>  O   -2.716058   +3.632201   -4.053725
| 27>  C   -0.405690   +1.035553   -2.172089
| 28>  C   -0.644028   +1.130411   -0.641929
| 29>  O   +0.414446   +0.228598   -2.666353
| 30>  N   +0.000000   +0.000000   +0.000000
| 31>  H   -1.719456   +1.151111   -0.405182
| 32>  H   -0.184823   +2.059562   -0.266085
| 33>  H   -0.468088   -0.900076   -0.102475
| 34>  C   +1.368519   +0.000000   +0.000000
| 35>  C   +2.044723   -1.348391   -0.294972
| 36>  O   +2.062072   +1.009169   +0.000000
| 37>  H   +1.373662   -2.220112   -0.299068
| 38>  H   +2.912660   -1.530899   +0.354753
| 39>  O   -1.976859   +3.192582   -6.154748
| 40>  H   -2.635000   +3.884037   -6.385959
| 41>  N   +2.517559   -1.109265   -1.712653
| 42>  H   +3.252195   -0.381400   -1.693118
| 43>  H   +2.881883   -1.950250   -2.182970
| 44>  H   +1.681435   -0.666973   -2.242460
| 45> *
| 46> 
| 47>                          ****END OF INPUT****
================================================================================

                       *****************************
                       * Geometry Optimization Run *
                       *****************************

Geometry optimization settings:
Update method            Update   .... BFGS
Choice of coordinates    CoordSys .... Z-matrix Internals
Initial Hessian          InHess   .... Almoef's Model

Convergence Tolerances:
Energy Change            TolE     ....  2.0000e-07 Eh
Max. Gradient            TolMAXG  ....  3.0000e-05 Eh/bohr
RMS Gradient             TolRMSG  ....  8.0000e-06 Eh/bohr
Max. Displacement        TolMAXD  ....  2.0000e-04 bohr
RMS Displacement         TolRMSD  ....  1.0000e-04 bohr
Strict Convergence                ....  False
------------------------------------------------------------------------------
                        ORCA OPTIMIZATION COORDINATE SETUP
------------------------------------------------------------------------------

The optimization will be done in new redundant internal coordinates
Making redundant internal coordinates   ...  (new redundants) done
Evaluating the initial hessian          ...  (Is done on the fly) done
Evaluating the coordinates              ...  done
Calculating the B-matrix                .... done
Calculating the G-matrix                .... done
Diagonalizing the G-matrix              .... done
Small eigenvalue found = 3.789e-03
Small eigenvalue found = 1.543e-02
Small eigenvalue found = 2.068e-02
Small eigenvalue found = 2.690e-02
The first mode is                       ....   44
The number of degrees of freedom        ....   69

    -----------------------------------------------------------------
                    Redundant Internal Coordinates


    -----------------------------------------------------------------
         Definition                    Initial Value    d2E/dq (diagonal element)
    -----------------------------------------------------------------
      1. B(H   1,N   0)                  1.0289         0.000000   
      2. B(C   2,N   0)                  1.4541         0.000000   
      3. B(C   3,C   2)                  1.5245         0.000000   
      4. B(H   4,C   2)                  1.1050         0.000000   
      5. B(H   5,C   2)                  1.1048         0.000000   
      6. B(O   6,C   3)                  1.2162         0.000000   
      7. B(C   7,N   0)                  1.3355         0.000000   
      8. B(C   8,C   7)                  1.5515         0.000000   
      9. B(O   9,C   7)                  1.2522         0.000000   
     10. B(N  10,C   8)                  1.4507         0.000000   
     11. B(H  11,C   8)                  1.1014         0.000000   
     12. B(H  12,C   8)                  1.1025         0.000000   
     13. B(H  13,N  10)                  1.0197         0.000000   
     14. B(C  14,N  10)                  1.3685         0.000000   
     15. B(C  15,C  14)                  1.5370         0.000000   
     16. B(O  16,C  14)                  1.2245         0.000000   
     17. B(H  17,C  15)                  1.1001         0.000000   
     18. B(H  18,C  15)                  1.0994         0.000000   
     19. B(O  19,C   3)                  1.3365         0.000000   
     20. B(H  20,O  19)                  0.9822         0.000000   
     21. B(N  21,C  15)                  1.5135         0.000000   
     22. B(H  22,N  21)                  1.0343         0.000000   
     23. B(H  23,N  21)                  1.0301         0.000000   
     24. B(H  24,N  21)                  1.0842         0.000000   
     25. A(H   1,N   0,C   2)          113.6453         0.000000   
     26. A(C   2,N   0,C   7)          124.1892         0.000000   
     27. A(H   1,N   0,C   7)          122.1656         0.000000   
     28. A(C   3,C   2,H   5)          110.0447         0.000000   
     29. A(C   3,C   2,H   4)          109.9524         0.000000   
     30. A(N   0,C   2,H   4)          111.5120         0.000000   
     31. A(N   0,C   2,C   3)          106.7515         0.000000   
     32. A(N   0,C   2,H   5)          111.4731         0.000000   
     33. A(H   4,C   2,H   5)          107.1305         0.000000   
     34. A(O   6,C   3,O  19)          125.5210         0.000000   
     35. A(C   2,C   3,O  19)          111.6769         0.000000   
     36. A(C   2,C   3,O   6)          122.8021         0.000000   
     37. A(C   8,C   7,O   9)          121.9569         0.000000   
     38. A(N   0,C   7,O   9)          122.0115         0.000000   
     39. A(N   0,C   7,C   8)          116.0282         0.000000   
     40. A(C   7,C   8,H  11)          111.2934         0.000000   
     41. A(C   7,C   8,N  10)          108.6966         0.000000   
     42. A(H  11,C   8,H  12)          108.5172         0.000000   
     43. A(N  10,C   8,H  12)          108.7198         0.000000   
     44. A(C   7,C   8,H  12)          108.8905         0.000000   
     45. A(N  10,C   8,H  11)          110.6710         0.000000   
     46. A(H  13,N  10,C  14)          117.3261         0.000000   
     47. A(C   8,N  10,C  14)          116.3548         0.000000   
     48. A(C   8,N  10,H  13)          116.0746         0.000000   
     49. A(C  15,C  14,O  16)          118.2824         0.000000   
     50. A(N  10,C  14,O  16)          124.4989         0.000000   
     51. A(N  10,C  14,C  15)          116.1004         0.000000   
     52. A(H  17,C  15,H  18)          110.6228         0.000000   
     53. A(C  14,C  15,H  18)          112.3043         0.000000   
     54. A(C  14,C  15,H  17)          115.3091         0.000000   
     55. A(H  18,C  15,N  21)          109.4602         0.000000   
     56. A(H  17,C  15,N  21)          108.1970         0.000000   
     57. A(C  14,C  15,N  21)          100.2885         0.000000   
     58. A(C   3,O  19,H  20)          107.9954         0.000000   
     59. A(H  23,N  21,H  24)          112.5003         0.000000   
     60. A(H  22,N  21,H  24)          105.6584         0.000000   
     61. A(C  15,N  21,H  24)          106.3356         0.000000   
     62. A(H  22,N  21,H  23)          109.3854         0.000000   
     63. A(C  15,N  21,H  23)          114.1525         0.000000   
     64. A(C  15,N  21,H  22)          108.3842         0.000000   
     65. D(H   4,C   2,N   0,C   7)    -60.6774         0.000000   
     66. D(H   5,C   2,N   0,C   7)     59.0099         0.000000   
     67. D(H   5,C   2,N   0,H   1)   -121.0226         0.000000   
     68. D(H   4,C   2,N   0,H   1)    119.2902         0.000000   
     69. D(C   3,C   2,N   0,H   1)     -0.8211         0.000000   
     70. D(C   3,C   2,N   0,C   7)    179.2114         0.000000   
     71. D(O   6,C   3,C   2,H   4)   -121.0567         0.000000   
     72. D(O  19,C   3,C   2,H   5)    -58.8584         0.000000   
     73. D(O  19,C   3,C   2,H   4)     58.9176         0.000000   
     74. D(O   6,C   3,C   2,H   5)    121.1673         0.000000   
     75. D(O  19,C   3,C   2,N   0)   -179.9733         0.000000   
     76. D(O   6,C   3,C   2,N   0)      0.0524         0.000000   
     77. D(O   9,C   7,N   0,H   1)    178.6323         0.000000   
     78. D(C   8,C   7,N   0,C   2)    177.9361         0.000000   
     79. D(C   8,C   7,N   0,H   1)     -2.0288         0.000000   
     80. D(O   9,C   7,N   0,C   2)     -1.4029         0.000000   
     81. D(H  12,C   8,C   7,O   9)    106.9107         0.000000   
     82. D(H  12,C   8,C   7,N   0)    -72.4286         0.000000   
     83. D(H  11,C   8,C   7,O   9)   -133.5097         0.000000   
     84. D(N  10,C   8,C   7,O   9)    -11.3778         0.000000   
     85. D(N  10,C   8,C   7,N   0)    169.2829         0.000000   
     86. D(H  11,C   8,C   7,N   0)     47.1510         0.000000   
     87. D(C  14,N  10,C   8,H  12)    -48.8006         0.000000   
     88. D(C  14,N  10,C   8,H  11)   -167.8952         0.000000   
     89. D(C  14,N  10,C   8,C   7)     69.5956         0.000000   
     90. D(H  13,N  10,C   8,H  12)    166.8307         0.000000   
     91. D(H  13,N  10,C   8,H  11)     47.7361         0.000000   
     92. D(H  13,N  10,C   8,C   7)    -74.7731         0.000000   
     93. D(O  16,C  14,N  10,C   8)     29.5910         0.000000   
     94. D(C  15,C  14,N  10,H  13)      5.8443         0.000000   
     95. D(C  15,C  14,N  10,C   8)   -138.0694         0.000000   
     96. D(O  16,C  14,N  10,H  13)    173.5048         0.000000   
     97. D(N  21,C  15,C  14,O  16)    -63.1169         0.000000   
     98. D(N  21,C  15,C  14,N  10)    105.3463         0.000000   
     99. D(H  18,C  15,C  14,O  16)     53.0153         0.000000   
    100. D(H  18,C  15,C  14,N  10)   -138.5215         0.000000   
    101. D(H  17,C  15,C  14,O  16)   -179.0250         0.000000   
    102. D(H  17,C  15,C  14,N  10)    -10.5618         0.000000   
    103. D(H  20,O  19,C   3,O   6)      0.0501         0.000000   
    104. D(H  20,O  19,C   3,C   2)   -179.9234         0.000000   
    105. D(H  24,N  21,C  15,H  18)   -164.4352         0.000000   
    106. D(H  24,N  21,C  15,H  17)     74.9428         0.000000   
    107. D(H  24,N  21,C  15,C  14)    -46.1906         0.000000   
    108. D(H  23,N  21,C  15,H  18)     70.9206         0.000000   
    109. D(H  23,N  21,C  15,H  17)    -49.7013         0.000000   
    110. D(H  23,N  21,C  15,C  14)   -170.8347         0.000000   
    111. D(H  22,N  21,C  15,H  18)    -51.2445         0.000000   
    112. D(H  22,N  21,C  15,H  17)   -171.8665         0.000000   
    113. D(H  22,N  21,C  15,C  14)     67.0001         0.000000   
    -----------------------------------------------------------------

Number of atoms                         .... 25
Number of degrees of freedom            .... 113

         *************************************************************
         *                GEOMETRY OPTIMIZATION CYCLE   1            *
         *************************************************************
---------------------------------
CARTESIAN COORDINATES (ANGSTROEM)
---------------------------------
  N     -1.116990    1.874904   -2.929130
  H     -1.806393    2.524531   -2.527429
  C     -1.002496    1.967249   -4.375749
  C     -2.000159    3.027293   -4.828709
  H      0.019004    2.254701   -4.683837
  H     -1.229343    1.001433   -4.861867
  O     -2.716058    3.632201   -4.053725
  C     -0.405690    1.035553   -2.172089
  C     -0.644028    1.130411   -0.641929
  O      0.414446    0.228598   -2.666353
  N      0.000000    0.000000    0.000000
  H     -1.719456    1.151111   -0.405182
  H     -0.184823    2.059562   -0.266085
  H     -0.468088   -0.900076   -0.102475
  C      1.368519    0.000000    0.000000
  C      2.044723   -1.348391   -0.294972
  O      2.062072    1.009169    0.000000
  H      1.373662   -2.220112   -0.299068
  H      2.912660   -1.530899    0.354753
  O     -1.976859    3.192582   -6.154748
  H     -2.635000    3.884037   -6.385959
  N      2.517559   -1.109265   -1.712653
  H      3.252195   -0.381400   -1.693118
  H      2.881883   -1.950250   -2.182970
  H      1.681435   -0.666973   -2.242460

----------------------------
CARTESIAN COORDINATES (A.U.)
----------------------------
  NO LB      ZA    FRAG     MASS         X           Y           Z
   0 N     7.0000    0    14.007   -2.110805    3.543055   -5.535254
   1 H     1.0000    0     1.008   -3.413588    4.770672   -4.776149
   2 C     6.0000    0    12.011   -1.894443    3.717562   -8.268967
   3 C     6.0000    0    12.011   -3.779753    5.720755   -9.124938
   4 H     1.0000    0     1.008    0.035912    4.260767   -8.851169
   5 H     1.0000    0     1.008   -2.323122    1.892434   -9.187597
   6 O     8.0000    0    15.999   -5.132606    6.863865   -7.660430
   7 C     6.0000    0    12.011   -0.766643    1.956912   -4.104653
   8 C     6.0000    0    12.011   -1.217037    2.136167   -1.213070
   9 O     8.0000    0    15.999    0.783189    0.431988   -5.038677
  10 N     7.0000    0    14.007    0.000000    0.000000    0.000000
  11 H     1.0000    0     1.008   -3.249301    2.175285   -0.765683
  12 H     1.0000    0     1.008   -0.349265    3.892008   -0.502828
  13 H     1.0000    0     1.008   -0.884558   -1.700897   -0.193650
  14 C     6.0000    0    12.011    2.586126    0.000000    0.000000
  15 C     6.0000    0    12.011    3.863966   -2.548090   -0.557416
  16 O     8.0000    0    15.999    3.896751    1.907053    0.000000
  17 H     1.0000    0     1.008    2.595845   -4.195404   -0.565157
  18 H     1.0000    0     1.008    5.504130   -2.892980    0.670386
  19 O     8.0000    0    15.999   -3.735722    6.033106  -11.630788
  20 H     1.0000    0     1.008   -4.979428    7.339766  -12.067714
  21 N     7.0000    0    14.007    4.757497   -2.096207   -3.236445
  22 H     1.0000    0     1.008    6.145758   -0.720742   -3.199529
  23 H     1.0000    0     1.008    5.445970   -3.685438   -4.125215
  24 H     1.0000    0     1.008    3.177452   -1.260396   -4.237635

--------------------------------
INTERNAL COORDINATES (ANGSTROEM)
--------------------------------
 N      0   0   0     0.000000000000     0.00000000     0.00000000
 H      1   0   0     1.028909825465     0.00000000     0.00000000
 C      1   2   0     1.454078060567   113.64525680     0.00000000
 C      3   1   2     1.524531897044   106.75145048   359.17891996
 H      3   1   2     1.104992813573   111.51195912   119.29016844
 H      3   1   2     1.104794468301   111.47309367   238.97739090
 O      4   3   1     1.216151827249   122.80211555     0.05237235
 C      1   2   3     1.335503226084   122.16558292   179.96827257
 C      8   1   2     1.551513025407   116.02823554   357.97121007
 O      8   1   2     1.252236532057   122.01148163   178.63226667
 N      9   8   1     1.450749438996   108.69664953   169.28287517
 H      9   8   1     1.101373240638   111.29344483    47.15098117
 H      9   8   1     1.102474274150   108.89047908   287.57135417
 H     11   9   8     1.019678531276   116.07460791   285.22690298
 C     11   9   8     1.368519000000   116.35475981    69.59559383
 C     15  11   9     1.537016141516   116.10043148   221.93059153
 O     15  11   9     1.224515346727   124.49885713    29.59103918
 H     16  15  11     1.100107787800   115.30908908   349.43824416
 H     16  15  11     1.099439121397   112.30431659   221.47849363
 O      4   3   1     1.336503936785   111.67687398   180.02667754
 H     20   4   3     0.982200651307   107.99535423   180.07662177
 N     16  15  11     1.513464417994   100.28851706   105.34631565
 H     22  16  15     1.034339947477   108.38421711    67.00014523
 H     22  16  15     1.030138741961   114.15252563   189.16529645
 H     22  16  15     1.084168351267   106.33562991   313.80943386

---------------------------
INTERNAL COORDINATES (A.U.)
---------------------------
 N      0   0   0     0.000000000000     0.00000000     0.00000000
 H      1   0   0     1.944357786630     0.00000000     0.00000000
 C      1   2   0     2.747809311815   113.64525680     0.00000000
 C      3   1   2     2.880947767841   106.75145048   359.17891996
 H      3   1   2     2.088133797604   111.51195912   119.29016844
 H      3   1   2     2.087758979360   111.47309367   238.97739090
 O      4   3   1     2.298193890768   122.80211555     0.05237235
 C      1   2   3     2.523735348268   122.16558292   179.96827257
 C      8   1   2     2.931934711231   116.02823554   357.97121007
 O      8   1   2     2.366384100478   122.01148163   178.63226667
 N      9   8   1     2.741519128642   108.69664953   169.28287517
 H      9   8   1     2.081293796035   111.29344483    47.15098117
 H      9   8   1     2.083374447837   108.89047908   287.57135417
 H     11   9   8     1.926913168751   116.07460791   285.22690298
 C     11   9   8     2.586126119068   116.35475981    69.59559383
 C     15  11   9     2.904539570882   116.10043148   221.93059153
 O     15  11   9     2.313998652098   124.49885713    29.59103918
 H     16  15  11     2.078902436736   115.30908908   349.43824416
 H     16  15  11     2.077638840359   112.30431659   221.47849363
 O      4   3   1     2.525626417431   111.67687398   180.02667754
 H     20   4   3     1.856090239528   107.99535423   180.07662177
 N     16  15  11     2.860033263443   100.28851706   105.34631565
 H     22  16  15     1.954619230105   108.38421711    67.00014523
 H     22  16  15     1.946680102249   114.15252563   189.16529645
 H     22  16  15     2.048781266960   106.33562991   313.80943386

---------------------
BASIS SET INFORMATION
---------------------
There are 4 groups of distinct atoms

 Group   1 Type N   : 11s6p2d1f contracted to 5s3p2d1f pattern {62111/411/11/1}
 Group   2 Type H   : 5s2p1d contracted to 3s2p1d pattern {311/11/1}
 Group   3 Type C   : 11s6p2d1f contracted to 5s3p2d1f pattern {62111/411/11/1}
 Group   4 Type O   : 11s6p2d1f contracted to 5s3p2d1f pattern {62111/411/11/1}

Atom   0N    basis set group =>   1
Atom   1H    basis set group =>   2
Atom   2C    basis set group =>   3
Atom   3C    basis set group =>   3
Atom   4H    basis set group =>   2
Atom   5H    basis set group =>   2
Atom   6O    basis set group =>   4
Atom   7C    basis set group =>   3
Atom   8C    basis set group =>   3
Atom   9O    basis set group =>   4
Atom  10N    basis set group =>   1
Atom  11H    basis set group =>   2
Atom  12H    basis set group =>   2
Atom  13H    basis set group =>   2
Atom  14C    basis set group =>   3
Atom  15C    basis set group =>   3
Atom  16O    basis set group =>   4
Atom  17H    basis set group =>   2
Atom  18H    basis set group =>   2
Atom  19O    basis set group =>   4
Atom  20H    basis set group =>   2
Atom  21N    basis set group =>   1
Atom  22H    basis set group =>   2
Atom  23H    basis set group =>   2
Atom  24H    basis set group =>   2
---------------------------------
AUXILIARY/J BASIS SET INFORMATION
---------------------------------
There are 4 groups of distinct atoms

 Group   1 Type N   : 12s5p4d2f1g contracted to 6s4p3d1f1g pattern {711111/2111/211/2/1}
 Group   2 Type H   : 5s2p1d contracted to 3s1p1d pattern {311/2/1}
 Group   3 Type C   : 12s5p4d2f1g contracted to 6s4p3d1f1g pattern {711111/2111/211/2/1}
 Group   4 Type O   : 12s5p4d2f1g contracted to 6s4p3d1f1g pattern {711111/2111/211/2/1}

Atom   0N    basis set group =>   1
Atom   1H    basis set group =>   2
Atom   2C    basis set group =>   3
Atom   3C    basis set group =>   3
Atom   4H    basis set group =>   2
Atom   5H    basis set group =>   2
Atom   6O    basis set group =>   4
Atom   7C    basis set group =>   3
Atom   8C    basis set group =>   3
Atom   9O    basis set group =>   4
Atom  10N    basis set group =>   1
Atom  11H    basis set group =>   2
Atom  12H    basis set group =>   2
Atom  13H    basis set group =>   2
Atom  14C    basis set group =>   3
Atom  15C    basis set group =>   3
Atom  16O    basis set group =>   4
Atom  17H    basis set group =>   2
Atom  18H    basis set group =>   2
Atom  19O    basis set group =>   4
Atom  20H    basis set group =>   2
Atom  21N    basis set group =>   1
Atom  22H    basis set group =>   2
Atom  23H    basis set group =>   2
Atom  24H    basis set group =>   2


           ************************************************************
           *        Program running with 8 parallel MPI-processes     *
           *              working on a common directory               *
           ************************************************************
------------------------------------------------------------------------------
                           ORCA GTO INTEGRAL CALCULATION
                           -- RI-GTO INTEGRALS CHOSEN --
------------------------------------------------------------------------------
------------------------------------------------------------------------------
                   ___                                                        
                  /   \      - P O W E R E D   B Y -                         
                 /     \                                                     
                 |  |  |   _    _      __       _____    __    __             
                 |  |  |  | |  | |    /  \     |  _  \  |  |  /  |          
                  \  \/   | |  | |   /    \    | | | |  |  | /  /          
                 / \  \   | |__| |  /  /\  \   | |_| |  |  |/  /          
                |  |  |   |  __  | /  /__\  \  |    /   |      \           
                |  |  |   | |  | | |   __   |  |    \   |  |\   \          
                \     /   | |  | | |  |  |  |  | |\  \  |  | \   \       
                 \___/    |_|  |_| |__|  |__|  |_| \__\ |__|  \__/        
                                                                              
                      - O R C A' S   B I G   F R I E N D -                    
                                      &                                       
                       - I N T E G R A L  F E E D E R -                       
                                                                              
 v1 FN, 2020, v2 2021                                                         
------------------------------------------------------------------------------


Reading SHARK input file GGG-H_tt_014_OptFreq.SHARKINP.tmp ... ok
----------------------
SHARK INTEGRAL PACKAGE
----------------------

Number of atoms                             ...     25
Number of basis functions                   ...    571
Number of shells                            ...    215
Maximum angular momentum                    ...      3
Integral batch strategy                     ... SHARK/LIBINT Hybrid
RI-J (if used) integral strategy            ... SPLIT-RIJ (Revised 2003 algorithm where possible)
Printlevel                                  ...      1
Contraction scheme used                     ... SEGMENTED contraction
Coulomb Range Separation                    ... NOT USED
Exchange Range Separation                   ... Long Range
   Mu parameter                             ...  0.300000
   Scaling (regular/separated)              ...  0.167000  0.833000
Finite Nucleus Model                        ... NOT USED
Auxiliary Coulomb fitting basis             ... AVAILABLE
   # of basis functions in Aux-J            ...    769
   # of shells in Aux-J                     ...    255
   Maximum angular momentum in Aux-J        ...      4
Auxiliary J/K fitting basis                 ... NOT available
Auxiliary Correlation fitting basis         ... NOT available
Auxiliary 'external' fitting basis          ... NOT available
Integral threshold                          ...     1.000000e-12
Primitive cut-off                           ...     1.000000e-14
Primitive pair pre-selection threshold      ...     1.000000e-14

Calculating pre-screening integrals         ... done (  0.1 sec) Dimension = 215
Organizing shell pair data                  ... done (  0.2 sec)
Shell pair information
Total number of shell pairs                 ...     23220
Shell pairs after pre-screening             ...     18366
Total number of primitive shell pairs       ...     63868
Primitive shell pairs kept                  ...     37013
          la=0 lb=0:   4068 shell pairs
          la=1 lb=0:   5187 shell pairs
          la=1 lb=1:   1711 shell pairs
          la=2 lb=0:   2890 shell pairs
          la=2 lb=1:   1898 shell pairs
          la=2 lb=2:    541 shell pairs
          la=3 lb=0:   1001 shell pairs
          la=3 lb=1:    648 shell pairs
          la=3 lb=2:    355 shell pairs
          la=3 lb=3:     67 shell pairs

Calculating one electron integrals          ... done (  0.0 sec)
Calculating RI/J V-Matrix + Cholesky decomp.... done (  0.7 sec)
Calculating Nuclear repulsion               ... done (  0.0 sec) ENN=    834.099291144023 Eh

SHARK setup successfully completed in   2.2 seconds

Maximum memory used throughout the entire GTOINT-calculation: 30.3 MB


           ************************************************************
           *        Program running with 8 parallel MPI-processes     *
           *              working on a common directory               *
           ************************************************************
-------------------------------------------------------------------------------
                                 ORCA SCF
-------------------------------------------------------------------------------

------------
SCF SETTINGS
------------
Hamiltonian:
 Density Functional     Method          .... DFT(GTOs)
 Exchange Functional    Exchange        .... WB97X-V
 Correlation Functional Correlation     .... WB97X-V
 Gradients option       PostSCFGGA      .... off
 Hybrid DFT is turned on
   Fraction HF Exchange ScalHFX         ....  0.167000
   Scaling of DF-GGA-X  ScalDFX         ....  0.000000
   Scaling of DF-GGA-C  ScalDFC         ....  1.000000
   Scaling of DF-LDA-C  ScalLDAC        ....  1.000000
   Perturbative correction              ....  0.000000
   Density functional embedding theory  .... OFF
 Long-range corrected/Screened/Range-Separated Hybrid DFT is turned on
   Amount of maximum screened exact exchange              ....  0.833000
   Range separation parameter mu (erf(mu*r12)/r12)        ....  0.300000
 RI-approximation to the Coulomb term is turned on
   Number of AuxJ basis functions       .... 769
   RIJ-COSX (HFX calculated with COS-X)).... on


General Settings:
 Integral files         IntName         .... GGG-H_tt_014_OptFreq
 Hartree-Fock type      HFTyp           .... RHF
 Total Charge           Charge          ....    1
 Multiplicity           Mult            ....    1
 Number of Electrons    NEL             ....  100
 Basis Dimension        Dim             ....  571
 Nuclear Repulsion      ENuc            ....    834.0992911440 Eh

Convergence Acceleration:
 DIIS                   CNVDIIS         .... on
   Start iteration      DIISMaxIt       ....    12
   Startup error        DIISStart       ....  0.200000
   # of expansion vecs  DIISMaxEq       ....     5
   Bias factor          DIISBfac        ....   1.050
   Max. coefficient     DIISMaxC        ....  10.000
 Trust-Rad. Augm. Hess. CNVTRAH         .... auto
   Auto Start mean grad. ratio tolernc. ....  1.125000
   Auto Start start iteration           ....    20
   Auto Start num. interpolation iter.  ....    10
   Max. Number of Micro iterations      ....    16
   Max. Number of Macro iterations      .... Maxiter - #DIIS iter
   Number of Davidson start vectors     ....     2
   Converg. threshold I  (grad. norm)   ....   2.000e-06
   Converg. threshold II (energy diff.) ....   1.000e-09
   Grad. Scal. Fac. for Micro threshold ....   0.100
   Minimum threshold for Micro iter.    ....   0.010
   NR start threshold (gradient norm)   ....   0.001
   Initial trust radius                 ....   0.400
   Minimum AH scaling param. (alpha)    ....   1.000
   Maximum AH scaling param. (alpha)    .... 1000.000
   Orbital update algorithm             .... Taylor
   White noise on init. David. guess    .... on
   Maximum white noise                  ....   0.010
   Quad. conv. algorithm                .... NR
 SOSCF                  CNVSOSCF        .... on
   Start iteration      SOSCFMaxIt      ....   150
   Startup grad/error   SOSCFStart      ....  0.003300
 Level Shifting         CNVShift        .... on
   Level shift para.    LevelShift      ....    0.2500
   Turn off err/grad.   ShiftErr        ....    0.0010
 Zerner damping         CNVZerner       .... off
 Static damping         CNVDamp         .... on
   Fraction old density DampFac         ....    0.7000
   Max. Damping (<1)    DampMax         ....    0.9800
   Min. Damping (>=0)   DampMin         ....    0.0000
   Turn off err/grad.   DampErr         ....    0.1000
 Fernandez-Rico         CNVRico         .... off

SCF Procedure:
 Maximum # iterations   MaxIter         ....   125
 SCF integral mode      SCFMode         .... Direct
   Integral package                     .... SHARK and LIBINT hybrid scheme
 Reset frequency        DirectResetFreq ....    20
 Integral Threshold     Thresh          ....  1.000e-12 Eh
 Primitive CutOff       TCut            ....  1.000e-14 Eh

Convergence Tolerance:
 Convergence Check Mode ConvCheckMode   .... Total+1el-Energy
 Convergence forced     ConvForced      .... 0
 Energy Change          TolE            ....  1.000e-09 Eh
 1-El. energy change                    ....  1.000e-06 Eh
 Orbital Gradient       TolG            ....  2.000e-06
 Orbital Rotation angle TolX            ....  2.000e-06
 DIIS Error             TolErr          ....  1.000e-08


Diagonalization of the overlap matrix:
Smallest eigenvalue                        ... 1.317e-04
Time for diagonalization                   ...    0.051 sec
Threshold for overlap eigenvalues          ... 1.000e-08
Number of eigenvalues below threshold      ... 0
Time for construction of square roots      ...    0.207 sec
Total time needed                          ...    0.259 sec

Time for model grid setup =    0.321 sec

------------------------------
INITIAL GUESS: MODEL POTENTIAL
------------------------------
Loading Hartree-Fock densities                     ... done
Calculating cut-offs                               ... done
Initializing the effective Hamiltonian             ... done
Setting up the integral package (SHARK)            ... done
Starting the Coulomb interaction                   ... done (   0.6 sec)
Reading the grid                                   ... done
Mapping shells                                     ... done
Starting the XC term evaluation                    ... done (   0.1 sec)
  promolecular density results
     # of electrons  =    100.994521958
     EX              =    -58.971917743
     EC              =     -4.267231545
     EX+EC           =    -63.239149288
Transforming the Hamiltonian                       ... done (   0.1 sec)
Diagonalizing the Hamiltonian                      ... done (   0.0 sec)
Back transforming the eigenvectors                 ... done (   0.0 sec)
Now organizing SCF variables                       ... done
                      ------------------
                      INITIAL GUESS DONE (   1.3 sec)
                      ------------------
-------------------
DFT GRID GENERATION
-------------------

General Integration Accuracy     IntAcc      ... 4.959
Radial Grid Type                 RadialGrid  ... OptM3 with GC (2021)
Angular Grid (max. ang.)         AngularGrid ... 6 (Lebedev-590)
Angular grid pruning method      GridPruning ... 4 (adaptive)
Weight generation scheme         WeightScheme... Becke
Basis function cutoff            BFCut       ... 1.0000e-12
Integration weight cutoff        WCut        ... 1.0000e-14
Angular grids for H and He will be reduced by one unit
Partially contracted basis set               ... off
Rotationally invariant grid construction     ... off

Total number of grid points                  ...   289453
Total number of batches                      ...     4533
Average number of points per batch           ...       63
Average number of grid points per atom       ...    11578
Time for grid setup =    3.326 sec

--------------------
COSX GRID GENERATION
--------------------

GRIDX 1
-------
General Integration Accuracy     IntAcc      ... 4.020
Radial Grid Type                 RadialGrid  ... OptM3 with GC (2021)
Angular Grid (max. ang.)         AngularGrid ... 2 (Lebedev-110)
Angular grid pruning method      GridPruning ... 4 (adaptive)
Weight generation scheme         WeightScheme... Becke
Basis function cutoff            BFCut       ... 1.0000e-12
Integration weight cutoff        WCut        ... 1.0000e-14
Angular grids for H and He will be reduced by one unit
Partially contracted basis set               ... on
Rotationally invariant grid construction     ... off

Total number of grid points                  ...    32286
Total number of batches                      ...      517
Average number of points per batch           ...       62
Average number of grid points per atom       ...     1291
UseSFitting                                  ... on

GRIDX 2
-------
General Integration Accuracy     IntAcc      ... 4.338
Radial Grid Type                 RadialGrid  ... OptM3 with GC (2021)
Angular Grid (max. ang.)         AngularGrid ... 3 (Lebedev-194)
Angular grid pruning method      GridPruning ... 4 (adaptive)
Weight generation scheme         WeightScheme... Becke
Basis function cutoff            BFCut       ... 1.0000e-12
Integration weight cutoff        WCut        ... 1.0000e-14
Angular grids for H and He will be reduced by one unit
Partially contracted basis set               ... on
Rotationally invariant grid construction     ... off

Total number of grid points                  ...    70825
Total number of batches                      ...     1122
Average number of points per batch           ...       63
Average number of grid points per atom       ...     2833
UseSFitting                                  ... on

GRIDX 3
-------
General Integration Accuracy     IntAcc      ... 4.871
Radial Grid Type                 RadialGrid  ... OptM3 with GC (2021)
Angular Grid (max. ang.)         AngularGrid ... 4 (Lebedev-302)
Angular grid pruning method      GridPruning ... 4 (adaptive)
Weight generation scheme         WeightScheme... Becke
Basis function cutoff            BFCut       ... 1.0000e-12
Integration weight cutoff        WCut        ... 1.0000e-14
Angular grids for H and He will be reduced by one unit
Partially contracted basis set               ... on
Rotationally invariant grid construction     ... off

Total number of grid points                  ...   134236
Total number of batches                      ...     2112
Average number of points per batch           ...       63
Average number of grid points per atom       ...     5369
UseSFitting                                  ... on

Time for X-Grid setup             =    3.881 sec

--------------
SCF ITERATIONS
--------------
ITER       Energy         Delta-E        Max-DP      RMS-DP      [F,P]     Damp
               ***  Starting incremental Fock matrix formation  ***
  0   -701.1712591392   0.000000000000 0.03986754  0.00045018  0.3427434 0.7000
                      *** Initiating the SOSCF procedure ***
                      *** Re-Reading the Fockian *** 
                      *** Removing any level shift *** 
ITER      Energy       Delta-E        Grad      Rot      Max-DP    RMS-DP
  1   -701.21694933  -0.0456901905  0.003296  0.003296  0.112450  0.001350
               *** Restarting incremental Fock matrix formation ***
  2   -701.28895440  -0.0720050749  0.016461  0.031911  0.055934  0.000550
  3   -701.28717779   0.0017766132  0.031938  0.028599  0.021925  0.000227
  4   -701.30310421  -0.0159264147  0.002301  0.002125  0.005498  0.000097
  5   -701.30324158  -0.0001373717  0.002639  0.002531  0.002627  0.000032
  6   -701.30354253  -0.0003009480  0.000353  0.000772  0.000641  0.000010
  7   -701.30354710  -0.0000045728  0.000222  0.000482  0.000380  0.000005
  8   -701.30355035  -0.0000032517  0.000063  0.000226  0.000163  0.000002
  9   -701.30355042  -0.0000000720  0.000060  0.000058  0.000051  0.000001
 10   -701.30355054  -0.0000001161  0.000006  0.000013  0.000020  0.000000
 11   -701.30355054  -0.0000000024  0.000005  0.000013  0.000009  0.000000
 12   -701.30355054  -0.0000000018  0.000002  0.000007  0.000003  0.000000
 13   -701.30355054  -0.0000000001  0.000002  0.000003  0.000001  0.000000
                  ***Gradient check signals convergence***
              ***Rediagonalizing the Fockian in SOSCF/NRSCF***

               *****************************************************
               *                     SUCCESS                       *
               *           SCF CONVERGED AFTER  14 CYCLES          *
               *****************************************************

Old exchange energy                            =    -27.831612554 Eh
New exchange energy                            =    -27.831612478 Eh
Exchange energy change after final integration =      0.000000076 Eh
Total energy after final integration           =   -701.303550467 Eh
Final COS-X integration done in                =    30.641 sec

----------------
TOTAL SCF ENERGY
----------------

Total Energy       :         -701.30355047 Eh          -19083.43979 eV

Components:
Nuclear Repulsion  :          834.09929114 Eh           22696.99560 eV
Electronic Energy  :        -1535.40284161 Eh          -41780.43540 eV
One Electron Energy:        -2596.96746884 Eh          -70667.07747 eV
Two Electron Energy:         1061.56462723 Eh           28886.64208 eV
Max COSX asymmetry :            0.00000103 Eh               0.00003 eV

Virial components:
Potential Energy   :        -1399.26815676 Eh          -38076.02229 eV
Kinetic Energy     :          697.96460630 Eh           18992.58250 eV
Virial Ratio       :            2.00478383


DFT components:
N(Alpha)           :       49.999999855819 electrons
N(Beta)            :       49.999999855819 electrons
N(Total)           :       99.999999711638 electrons
E(X)               :      -60.047758377808 Eh       
E(C)               :       -4.265208674871 Eh       
E(XC)              :      -64.312967052678 Eh       
DFET-embed. en.    :        0.000000000000 Eh       

---------------
SCF CONVERGENCE
---------------

  Last Energy change         ...    2.9104e-10  Tolerance :   1.0000e-09
  Last MAX-Density change    ...    2.3315e-15  Tolerance :   1.0000e-08
  Last RMS-Density change    ...    1.3977e-17  Tolerance :   1.0000e-09
  Last Orbital Gradient      ...    3.5507e-07  Tolerance :   2.0000e-06
  Last Orbital Rotation      ...    7.8040e-07  Tolerance :   2.0000e-06

             **** THE GBW FILE WAS UPDATED (GGG-H_tt_014_OptFreq.gbw) ****
             **** DENSITY GGG-H_tt_014_OptFreq.scfp WAS UPDATED ****
             **** ENERGY FILE WAS UPDATED (GGG-H_tt_014_OptFreq.en.tmp) ****
             **** THE GBW FILE WAS UPDATED (GGG-H_tt_014_OptFreq.gbw) ****
             **** DENSITY GGG-H_tt_014_OptFreq.scfp WAS UPDATED ****
----------------
ORBITAL ENERGIES
----------------

  NO   OCC          E(Eh)            E(eV) 
   0   2.0000     -19.387407      -527.5582 
   1   2.0000     -19.349561      -526.5283 
   2   2.0000     -19.345035      -526.4052 
   3   2.0000     -19.331993      -526.0503 
   4   2.0000     -14.687581      -399.6694 
   5   2.0000     -14.596934      -397.2028 
   6   2.0000     -14.591150      -397.0454 
   7   2.0000     -10.544957      -286.9429 
   8   2.0000     -10.541591      -286.8513 
   9   2.0000     -10.539551      -286.7958 
  10   2.0000     -10.509089      -285.9669 
  11   2.0000     -10.472471      -284.9704 
  12   2.0000     -10.459553      -284.6189 
  13   2.0000      -1.367029       -37.1988 
  14   2.0000      -1.345305       -36.6076 
  15   2.0000      -1.326545       -36.0971 
  16   2.0000      -1.281843       -34.8807 
  17   2.0000      -1.277483       -34.7621 
  18   2.0000      -1.218510       -33.1573 
  19   2.0000      -1.209754       -32.9191 
  20   2.0000      -1.053463       -28.6662 
  21   2.0000      -1.028271       -27.9807 
  22   2.0000      -0.979732       -26.6599 
  23   2.0000      -0.884297       -24.0629 
  24   2.0000      -0.883183       -24.0326 
  25   2.0000      -0.861788       -23.4504 
  26   2.0000      -0.857572       -23.3357 
  27   2.0000      -0.840742       -22.8778 
  28   2.0000      -0.799990       -21.7688 
  29   2.0000      -0.788427       -21.4542 
  30   2.0000      -0.759024       -20.6541 
  31   2.0000      -0.742880       -20.2148 
  32   2.0000      -0.741696       -20.1826 
  33   2.0000      -0.734211       -19.9789 
  34   2.0000      -0.723275       -19.6813 
  35   2.0000      -0.717860       -19.5340 
  36   2.0000      -0.701650       -19.0929 
  37   2.0000      -0.686183       -18.6720 
  38   2.0000      -0.681204       -18.5365 
  39   2.0000      -0.673060       -18.3149 
  40   2.0000      -0.653383       -17.7795 
  41   2.0000      -0.636116       -17.3096 
  42   2.0000      -0.625714       -17.0265 
  43   2.0000      -0.620677       -16.8895 
  44   2.0000      -0.556304       -15.1378 
  45   2.0000      -0.550978       -14.9929 
  46   2.0000      -0.534711       -14.5502 
  47   2.0000      -0.521949       -14.2030 
  48   2.0000      -0.519987       -14.1496 
  49   2.0000      -0.515640       -14.0313 
  50   0.0000      -0.082875        -2.2551 
  51   0.0000      -0.060275        -1.6402 
  52   0.0000      -0.051945        -1.4135 
  53   0.0000      -0.029483        -0.8023 
  54   0.0000      -0.027031        -0.7356 
  55   0.0000      -0.009696        -0.2638 
  56   0.0000      -0.000725        -0.0197 
  57   0.0000       0.011971         0.3257 
  58   0.0000       0.014786         0.4024 
  59   0.0000       0.026239         0.7140 
  60   0.0000       0.038983         1.0608 
  61   0.0000       0.050420         1.3720 
  62   0.0000       0.064828         1.7641 
  63   0.0000       0.073329         1.9954 
  64   0.0000       0.081249         2.2109 
  65   0.0000       0.083522         2.2728 
  66   0.0000       0.091463         2.4888 
  67   0.0000       0.105699         2.8762 
  68   0.0000       0.107495         2.9251 
  69   0.0000       0.122142         3.3237 
  70   0.0000       0.123326         3.3559 
  71   0.0000       0.130464         3.5501 
  72   0.0000       0.150118         4.0849 
  73   0.0000       0.158071         4.3013 
  74   0.0000       0.160925         4.3790 
  75   0.0000       0.177695         4.8353 
  76   0.0000       0.182753         4.9730 
  77   0.0000       0.190076         5.1722 
  78   0.0000       0.201520         5.4836 
  79   0.0000       0.207485         5.6459 
  80   0.0000       0.225320         6.1313 
  81   0.0000       0.229472         6.2442 
  82   0.0000       0.238448         6.4885 
  83   0.0000       0.251186         6.8351 
  84   0.0000       0.260377         7.0852 
  85   0.0000       0.268830         7.3152 
  86   0.0000       0.270461         7.3596 
  87   0.0000       0.288629         7.8540 
  88   0.0000       0.289297         7.8722 
  89   0.0000       0.294521         8.0143 
  90   0.0000       0.310431         8.4472 
  91   0.0000       0.316005         8.5989 
  92   0.0000       0.325004         8.8438 
  93   0.0000       0.329646         8.9701 
  94   0.0000       0.332837         9.0569 
  95   0.0000       0.339847         9.2477 
  96   0.0000       0.346066         9.4169 
  97   0.0000       0.352469         9.5912 
  98   0.0000       0.355510         9.6739 
  99   0.0000       0.365149         9.9362 
 100   0.0000       0.367199         9.9920 
 101   0.0000       0.369382        10.0514 
 102   0.0000       0.377167        10.2632 
 103   0.0000       0.385152        10.4805 
 104   0.0000       0.386939        10.5291 
 105   0.0000       0.395843        10.7714 
 106   0.0000       0.404711        11.0128 
 107   0.0000       0.407933        11.1004 
 108   0.0000       0.408172        11.1069 
 109   0.0000       0.420328        11.4377 
 110   0.0000       0.434004        11.8099 
 111   0.0000       0.446088        12.1387 
 112   0.0000       0.449431        12.2296 
 113   0.0000       0.457980        12.4623 
 114   0.0000       0.471576        12.8322 
 115   0.0000       0.477450        12.9921 
 116   0.0000       0.485043        13.1987 
 117   0.0000       0.492744        13.4082 
 118   0.0000       0.504056        13.7161 
 119   0.0000       0.517740        14.0884 
 120   0.0000       0.518717        14.1150 
 121   0.0000       0.532225        14.4826 
 122   0.0000       0.535766        14.5789 
 123   0.0000       0.553626        15.0649 
 124   0.0000       0.566212        15.4074 
 125   0.0000       0.583263        15.8714 
 126   0.0000       0.587577        15.9888 
 127   0.0000       0.598529        16.2868 
 128   0.0000       0.602850        16.4044 
 129   0.0000       0.621013        16.8986 
 130   0.0000       0.625361        17.0169 
 131   0.0000       0.639772        17.4091 
 132   0.0000       0.648364        17.6429 
 133   0.0000       0.655731        17.8433 
 134   0.0000       0.678926        18.4745 
 135   0.0000       0.686960        18.6931 
 136   0.0000       0.700213        19.0538 
 137   0.0000       0.706821        19.2336 
 138   0.0000       0.721412        19.6306 
 139   0.0000       0.723770        19.6948 
 140   0.0000       0.726788        19.7769 
 141   0.0000       0.743793        20.2396 
 142   0.0000       0.758862        20.6497 
 143   0.0000       0.766657        20.8618 
 144   0.0000       0.774337        21.0708 
 145   0.0000       0.784039        21.3348 
 146   0.0000       0.806015        21.9328 
 147   0.0000       0.824982        22.4489 
 148   0.0000       0.831182        22.6176 
 149   0.0000       0.836943        22.7744 
 150   0.0000       0.857201        23.3256 
 151   0.0000       0.873638        23.7729 
 152   0.0000       0.876954        23.8631 
 153   0.0000       0.889332        24.2000 
 154   0.0000       0.894044        24.3282 
 155   0.0000       0.903652        24.5896 
 156   0.0000       0.911196        24.7949 
 157   0.0000       0.922382        25.0993 
 158   0.0000       0.932939        25.3866 
 159   0.0000       0.942505        25.6469 
 160   0.0000       0.974370        26.5140 
 161   0.0000       0.981352        26.7040 
 162   0.0000       0.981899        26.7188 
 163   0.0000       0.985206        26.8088 
 164   0.0000       0.995076        27.0774 
 165   0.0000       1.002049        27.2671 
 166   0.0000       1.011113        27.5138 
 167   0.0000       1.016121        27.6500 
 168   0.0000       1.027462        27.9587 
 169   0.0000       1.036788        28.2124 
 170   0.0000       1.048899        28.5420 
 171   0.0000       1.062769        28.9194 
 172   0.0000       1.077555        29.3218 
 173   0.0000       1.089698        29.6522 
 174   0.0000       1.094491        29.7826 
 175   0.0000       1.098207        29.8837 
 176   0.0000       1.100396        29.9433 
 177   0.0000       1.117016        30.3955 
 178   0.0000       1.129593        30.7378 
 179   0.0000       1.139044        30.9950 
 180   0.0000       1.163294        31.6548 
 181   0.0000       1.166552        31.7435 
 182   0.0000       1.184561        32.2336 
 183   0.0000       1.188328        32.3360 
 184   0.0000       1.191529        32.4232 
 185   0.0000       1.203899        32.7598 
 186   0.0000       1.214396        33.0454 
 187   0.0000       1.226123        33.3645 
 188   0.0000       1.228091        33.4181 
 189   0.0000       1.250224        34.0203 
 190   0.0000       1.260474        34.2992 
 191   0.0000       1.268053        34.5055 
 192   0.0000       1.299585        35.3635 
 193   0.0000       1.316372        35.8203 
 194   0.0000       1.335483        36.3403 
 195   0.0000       1.355741        36.8916 
 196   0.0000       1.364581        37.1321 
 197   0.0000       1.366259        37.1778 
 198   0.0000       1.373017        37.3617 
 199   0.0000       1.384353        37.6701 
 200   0.0000       1.387290        37.7501 
 201   0.0000       1.399231        38.0750 
 202   0.0000       1.408475        38.3265 
 203   0.0000       1.428527        38.8722 
 204   0.0000       1.430685        38.9309 
 205   0.0000       1.443532        39.2805 
 206   0.0000       1.451188        39.4888 
 207   0.0000       1.456822        39.6421 
 208   0.0000       1.467628        39.9362 
 209   0.0000       1.472445        40.0673 
 210   0.0000       1.493614        40.6433 
 211   0.0000       1.499445        40.8020 
 212   0.0000       1.501100        40.8470 
 213   0.0000       1.520127        41.3648 
 214   0.0000       1.528940        41.6046 
 215   0.0000       1.546773        42.0898 
 216   0.0000       1.549925        42.1756 
 217   0.0000       1.566224        42.6191 
 218   0.0000       1.582559        43.0636 
 219   0.0000       1.585891        43.1543 
 220   0.0000       1.601176        43.5702 
 221   0.0000       1.609509        43.7970 
 222   0.0000       1.630886        44.3787 
 223   0.0000       1.636450        44.5301 
 224   0.0000       1.667561        45.3766 
 225   0.0000       1.672971        45.5239 
 226   0.0000       1.678559        45.6759 
 227   0.0000       1.712084        46.5882 
 228   0.0000       1.720543        46.8183 
 229   0.0000       1.739773        47.3416 
 230   0.0000       1.753649        47.7192 
 231   0.0000       1.794907        48.8419 
 232   0.0000       1.808050        49.1996 
 233   0.0000       1.812178        49.3119 
 234   0.0000       1.836401        49.9710 
 235   0.0000       1.850088        50.3435 
 236   0.0000       1.888486        51.3883 
 237   0.0000       1.898389        51.6578 
 238   0.0000       1.902020        51.7566 
 239   0.0000       1.922721        52.3199 
 240   0.0000       1.930997        52.5451 
 241   0.0000       1.954952        53.1970 
 242   0.0000       1.959245        53.3138 
 243   0.0000       1.973121        53.6913 
 244   0.0000       1.983758        53.9808 
 245   0.0000       1.998987        54.3952 
 246   0.0000       2.014788        54.8252 
 247   0.0000       2.033993        55.3478 
 248   0.0000       2.043600        55.6092 
 249   0.0000       2.088745        56.8376 
 250   0.0000       2.109554        57.4039 
 251   0.0000       2.118803        57.6556 
 252   0.0000       2.136145        58.1275 
 253   0.0000       2.161560        58.8190 
 254   0.0000       2.174925        59.1827 
 255   0.0000       2.190816        59.6151 
 256   0.0000       2.227541        60.6145 
 257   0.0000       2.249431        61.2101 
 258   0.0000       2.277415        61.9716 
 259   0.0000       2.295427        62.4617 
 260   0.0000       2.304451        62.7073 
 261   0.0000       2.312291        62.9206 
 262   0.0000       2.346908        63.8626 
 263   0.0000       2.368242        64.4432 
 264   0.0000       2.371838        64.5410 
 265   0.0000       2.395327        65.1801 
 266   0.0000       2.422171        65.9106 
 267   0.0000       2.429314        66.1050 
 268   0.0000       2.450068        66.6698 
 269   0.0000       2.471432        67.2511 
 270   0.0000       2.497974        67.9733 
 271   0.0000       2.501568        68.0711 
 272   0.0000       2.513053        68.3836 
 273   0.0000       2.522242        68.6337 
 274   0.0000       2.538704        69.0816 
 275   0.0000       2.569659        69.9240 
 276   0.0000       2.588600        70.4394 
 277   0.0000       2.597453        70.6803 
 278   0.0000       2.609860        71.0179 
 279   0.0000       2.621795        71.3427 
 280   0.0000       2.636078        71.7313 
 281   0.0000       2.650967        72.1365 
 282   0.0000       2.660952        72.4082 
 283   0.0000       2.661739        72.4296 
 284   0.0000       2.673165        72.7405 
 285   0.0000       2.691745        73.2461 
 286   0.0000       2.705755        73.6273 
 287   0.0000       2.713227        73.8307 
 288   0.0000       2.720622        74.0319 
 289   0.0000       2.736418        74.4617 
 290   0.0000       2.759709        75.0955 
 291   0.0000       2.771647        75.4203 
 292   0.0000       2.789457        75.9050 
 293   0.0000       2.799168        76.1692 
 294   0.0000       2.815519        76.6142 
 295   0.0000       2.818859        76.7050 
 296   0.0000       2.840389        77.2909 
 297   0.0000       2.841203        77.3131 
 298   0.0000       2.856168        77.7203 
 299   0.0000       2.869874        78.0932 
 300   0.0000       2.878386        78.3249 
 301   0.0000       2.885645        78.5224 
 302   0.0000       2.900110        78.9160 
 303   0.0000       2.911081        79.2145 
 304   0.0000       2.920402        79.4682 
 305   0.0000       2.933872        79.8347 
 306   0.0000       2.942119        80.0591 
 307   0.0000       2.946902        80.1893 
 308   0.0000       2.959356        80.5282 
 309   0.0000       2.968242        80.7700 
 310   0.0000       2.981091        81.1196 
 311   0.0000       3.001011        81.6617 
 312   0.0000       3.010958        81.9323 
 313   0.0000       3.031060        82.4793 
 314   0.0000       3.036644        82.6313 
 315   0.0000       3.042172        82.7817 
 316   0.0000       3.061700        83.3131 
 317   0.0000       3.063274        83.3559 
 318   0.0000       3.070207        83.5446 
 319   0.0000       3.084076        83.9220 
 320   0.0000       3.094642        84.2095 
 321   0.0000       3.098474        84.3138 
 322   0.0000       3.100677        84.3737 
 323   0.0000       3.119335        84.8814 
 324   0.0000       3.123707        85.0004 
 325   0.0000       3.139336        85.4257 
 326   0.0000       3.151405        85.7541 
 327   0.0000       3.166319        86.1599 
 328   0.0000       3.172506        86.3283 
 329   0.0000       3.181702        86.5785 
 330   0.0000       3.190781        86.8256 
 331   0.0000       3.198955        87.0480 
 332   0.0000       3.215810        87.5067 
 333   0.0000       3.223622        87.7192 
 334   0.0000       3.238820        88.1328 
 335   0.0000       3.250138        88.4408 
 336   0.0000       3.257889        88.6517 
 337   0.0000       3.266716        88.8919 
 338   0.0000       3.270484        88.9944 
 339   0.0000       3.289142        89.5021 
 340   0.0000       3.300300        89.8057 
 341   0.0000       3.313045        90.1525 
 342   0.0000       3.320845        90.3648 
 343   0.0000       3.330156        90.6181 
 344   0.0000       3.344580        91.0107 
 345   0.0000       3.356290        91.3293 
 346   0.0000       3.360167        91.4348 
 347   0.0000       3.370039        91.7034 
 348   0.0000       3.388017        92.1926 
 349   0.0000       3.399848        92.5146 
 350   0.0000       3.408211        92.7421 
 351   0.0000       3.421461        93.1027 
 352   0.0000       3.424438        93.1837 
 353   0.0000       3.432195        93.3948 
 354   0.0000       3.438753        93.5732 
 355   0.0000       3.442421        93.6730 
 356   0.0000       3.447401        93.8086 
 357   0.0000       3.472522        94.4921 
 358   0.0000       3.479177        94.6732 
 359   0.0000       3.487880        94.9100 
 360   0.0000       3.496672        95.1493 
 361   0.0000       3.513535        95.6081 
 362   0.0000       3.525067        95.9219 
 363   0.0000       3.537107        96.2496 
 364   0.0000       3.547421        96.5302 
 365   0.0000       3.547909        96.5435 
 366   0.0000       3.572146        97.2030 
 367   0.0000       3.575605        97.2971 
 368   0.0000       3.589684        97.6803 
 369   0.0000       3.599368        97.9438 
 370   0.0000       3.612316        98.2961 
 371   0.0000       3.623104        98.5897 
 372   0.0000       3.635838        98.9362 
 373   0.0000       3.636359        98.9504 
 374   0.0000       3.645876        99.2093 
 375   0.0000       3.669039        99.8396 
 376   0.0000       3.680972       100.1643 
 377   0.0000       3.709402       100.9380 
 378   0.0000       3.721258       101.2606 
 379   0.0000       3.727912       101.4416 
 380   0.0000       3.748013       101.9886 
 381   0.0000       3.772396       102.6521 
 382   0.0000       3.778358       102.8144 
 383   0.0000       3.782042       102.9146 
 384   0.0000       3.787983       103.0763 
 385   0.0000       3.814192       103.7894 
 386   0.0000       3.823839       104.0519 
 387   0.0000       3.833643       104.3187 
 388   0.0000       3.852127       104.8217 
 389   0.0000       3.861333       105.0722 
 390   0.0000       3.876601       105.4877 
 391   0.0000       3.889797       105.8468 
 392   0.0000       3.901814       106.1737 
 393   0.0000       3.906988       106.3145 
 394   0.0000       3.915098       106.5352 
 395   0.0000       3.954986       107.6206 
 396   0.0000       3.955549       107.6359 
 397   0.0000       3.965439       107.9051 
 398   0.0000       3.967580       107.9633 
 399   0.0000       3.993354       108.6647 
 400   0.0000       3.995688       108.7282 
 401   0.0000       4.016381       109.2913 
 402   0.0000       4.022881       109.4682 
 403   0.0000       4.029841       109.6576 
 404   0.0000       4.048746       110.1720 
 405   0.0000       4.074580       110.8749 
 406   0.0000       4.086555       111.2008 
 407   0.0000       4.104487       111.6888 
 408   0.0000       4.110675       111.8571 
 409   0.0000       4.115531       111.9893 
 410   0.0000       4.118408       112.0676 
 411   0.0000       4.131572       112.4258 
 412   0.0000       4.149716       112.9195 
 413   0.0000       4.170064       113.4732 
 414   0.0000       4.175963       113.6337 
 415   0.0000       4.192744       114.0904 
 416   0.0000       4.200399       114.2987 
 417   0.0000       4.213218       114.6475 
 418   0.0000       4.216912       114.7480 
 419   0.0000       4.243300       115.4661 
 420   0.0000       4.245132       115.5159 
 421   0.0000       4.256821       115.8340 
 422   0.0000       4.275716       116.3481 
 423   0.0000       4.290002       116.7369 
 424   0.0000       4.298838       116.9773 
 425   0.0000       4.318552       117.5138 
 426   0.0000       4.321205       117.5860 
 427   0.0000       4.333427       117.9186 
 428   0.0000       4.352145       118.4279 
 429   0.0000       4.402658       119.8024 
 430   0.0000       4.409572       119.9905 
 431   0.0000       4.428467       120.5047 
 432   0.0000       4.443420       120.9116 
 433   0.0000       4.484974       122.0424 
 434   0.0000       4.487376       122.1077 
 435   0.0000       4.520784       123.0168 
 436   0.0000       4.528454       123.2255 
 437   0.0000       4.568798       124.3233 
 438   0.0000       4.584733       124.7569 
 439   0.0000       4.594719       125.0287 
 440   0.0000       4.598524       125.1322 
 441   0.0000       4.642452       126.3275 
 442   0.0000       4.645746       126.4172 
 443   0.0000       4.674265       127.1932 
 444   0.0000       4.681641       127.3939 
 445   0.0000       4.706077       128.0589 
 446   0.0000       4.713321       128.2560 
 447   0.0000       4.731820       128.7594 
 448   0.0000       4.751715       129.3007 
 449   0.0000       4.760778       129.5473 
 450   0.0000       4.787411       130.2721 
 451   0.0000       4.802499       130.6826 
 452   0.0000       4.821681       131.2046 
 453   0.0000       4.833746       131.5329 
 454   0.0000       4.845077       131.8413 
 455   0.0000       4.856954       132.1644 
 456   0.0000       4.859261       132.2272 
 457   0.0000       4.874311       132.6367 
 458   0.0000       4.886849       132.9779 
 459   0.0000       4.905106       133.4747 
 460   0.0000       4.929597       134.1411 
 461   0.0000       4.947037       134.6157 
 462   0.0000       4.974615       135.3662 
 463   0.0000       4.989043       135.7588 
 464   0.0000       5.021823       136.6507 
 465   0.0000       5.040542       137.1601 
 466   0.0000       5.046591       137.3247 
 467   0.0000       5.075376       138.1080 
 468   0.0000       5.096281       138.6768 
 469   0.0000       5.104667       138.9051 
 470   0.0000       5.117852       139.2638 
 471   0.0000       5.140184       139.8715 
 472   0.0000       5.153146       140.2242 
 473   0.0000       5.165625       140.5638 
 474   0.0000       5.178117       140.9037 
 475   0.0000       5.180703       140.9741 
 476   0.0000       5.190358       141.2368 
 477   0.0000       5.213038       141.8540 
 478   0.0000       5.222631       142.1150 
 479   0.0000       5.240960       142.6138 
 480   0.0000       5.246801       142.7727 
 481   0.0000       5.274065       143.5146 
 482   0.0000       5.288928       143.9190 
 483   0.0000       5.309903       144.4898 
 484   0.0000       5.314763       144.6220 
 485   0.0000       5.331165       145.0684 
 486   0.0000       5.353416       145.6739 
 487   0.0000       5.371229       146.1586 
 488   0.0000       5.384617       146.5229 
 489   0.0000       5.399580       146.9300 
 490   0.0000       5.444372       148.1489 
 491   0.0000       5.459157       148.5512 
 492   0.0000       5.463444       148.6679 
 493   0.0000       5.480742       149.1386 
 494   0.0000       5.499238       149.6419 
 495   0.0000       5.513243       150.0230 
 496   0.0000       5.523909       150.3132 
 497   0.0000       5.526318       150.3788 
 498   0.0000       5.562322       151.3585 
 499   0.0000       5.589522       152.0986 
 500   0.0000       5.596181       152.2798 
 501   0.0000       5.605293       152.5278 
 502   0.0000       5.630746       153.2204 
 503   0.0000       5.643933       153.5792 
 504   0.0000       5.656935       153.9330 
 505   0.0000       5.686254       154.7308 
 506   0.0000       5.706004       155.2683 
 507   0.0000       5.714889       155.5100 
 508   0.0000       5.763891       156.8434 
 509   0.0000       5.773603       157.1077 
 510   0.0000       5.802465       157.8931 
 511   0.0000       5.864687       159.5863 
 512   0.0000       5.880580       160.0187 
 513   0.0000       5.913038       160.9019 
 514   0.0000       5.949173       161.8852 
 515   0.0000       5.963104       162.2643 
 516   0.0000       5.988227       162.9479 
 517   0.0000       5.994915       163.1299 
 518   0.0000       6.024965       163.9476 
 519   0.0000       6.086363       165.6184 
 520   0.0000       6.118871       166.5029 
 521   0.0000       6.128920       166.7764 
 522   0.0000       6.148418       167.3070 
 523   0.0000       6.153435       167.4435 
 524   0.0000       6.292085       171.2163 
 525   0.0000       6.313601       171.8018 
 526   0.0000       6.324714       172.1042 
 527   0.0000       6.353948       172.8997 
 528   0.0000       6.380466       173.6213 
 529   0.0000       6.405345       174.2983 
 530   0.0000       6.412746       174.4997 
 531   0.0000       6.415001       174.5611 
 532   0.0000       6.421805       174.7462 
 533   0.0000       6.452315       175.5764 
 534   0.0000       6.485451       176.4781 
 535   0.0000       6.513829       177.2503 
 536   0.0000       6.550303       178.2428 
 537   0.0000       6.556690       178.4166 
 538   0.0000       6.570215       178.7846 
 539   0.0000       6.596715       179.5057 
 540   0.0000       6.654460       181.0771 
 541   0.0000       6.691223       182.0774 
 542   0.0000       6.702816       182.3929 
 543   0.0000       6.742025       183.4598 
 544   0.0000       6.812136       185.3676 
 545   0.0000       6.824392       185.7011 
 546   0.0000       6.846715       186.3086 
 547   0.0000       6.849456       186.3832 
 548   0.0000       6.939316       188.8284 
 549   0.0000       6.962742       189.4658 
 550   0.0000       7.046832       191.7540 
 551   0.0000       7.080344       192.6660 
 552   0.0000       7.111601       193.5165 
 553   0.0000       7.120598       193.7613 
 554   0.0000       7.244741       197.1394 
 555   0.0000       7.383096       200.9043 
 556   0.0000       7.465151       203.1371 
 557   0.0000       7.497202       204.0092 
 558   0.0000      23.130163       629.4037 
 559   0.0000      23.177046       630.6795 
 560   0.0000      23.239683       632.3839 
 561   0.0000      23.296731       633.9363 
 562   0.0000      23.319710       634.5616 
 563   0.0000      23.418085       637.2385 
 564   0.0000      32.727977       890.5735 
 565   0.0000      32.794604       892.3865 
 566   0.0000      32.953278       896.7043 
 567   0.0000      43.817895      1192.3455 
 568   0.0000      43.885695      1194.1905 
 569   0.0000      43.958489      1196.1713 
 570   0.0000      44.016174      1197.7410 

                    ********************************
                    * MULLIKEN POPULATION ANALYSIS *
                    ********************************

-----------------------
MULLIKEN ATOMIC CHARGES
-----------------------
   0 N :   -0.168960
   1 H :    0.201686
   2 C :   -0.063863
   3 C :    0.313057
   4 H :    0.135185
   5 H :    0.135594
   6 O :   -0.326362
   7 C :    0.326676
   8 C :   -0.084210
   9 O :   -0.475112
  10 N :   -0.182657
  11 H :    0.153090
  12 H :    0.161184
  13 H :    0.182824
  14 C :    0.206433
  15 C :   -0.141304
  16 O :   -0.327302
  17 H :    0.144369
  18 H :    0.171211
  19 O :   -0.255915
  20 H :    0.258043
  21 N :   -0.077178
  22 H :    0.241057
  23 H :    0.233027
  24 H :    0.239427
Sum of atomic charges:    1.0000000

--------------------------------
MULLIKEN REDUCED ORBITAL CHARGES
--------------------------------
  0 N s       :     3.425433  s :     3.425433
      pz      :     1.063151  p :     3.683465
      px      :     1.324109
      py      :     1.296205
      dz2     :     0.015404  d :     0.056090
      dxz     :     0.013949
      dyz     :     0.014867
      dx2y2   :     0.004711
      dxy     :     0.007159
      f0      :     0.000714  f :     0.003972
      f+1     :     0.000666
      f-1     :     0.000783
      f+2     :     0.000312
      f-2     :     0.000478
      f+3     :     0.000483
      f-3     :     0.000535
  1 H s       :     0.726877  s :     0.726877
      pz      :     0.015274  p :     0.066035
      px      :     0.025272
      py      :     0.025489
      dz2     :     0.000702  d :     0.005402
      dxz     :     0.000882
      dyz     :     0.000912
      dx2y2   :     0.001835
      dxy     :     0.001071
  2 C s       :     3.141931  s :     3.141931
      pz      :     0.742312  p :     2.804869
      px      :     1.035027
      py      :     1.027530
      dz2     :     0.020774  d :     0.109063
      dxz     :     0.026229
      dyz     :     0.030211
      dx2y2   :     0.018240
      dxy     :     0.013609
      f0      :     0.002082  f :     0.008000
      f+1     :     0.001973
      f-1     :     0.001932
      f+2     :     0.000212
      f-2     :     0.000596
      f+3     :     0.000604
      f-3     :     0.000603
  3 C s       :     3.065218  s :     3.065218
      pz      :     0.697672  p :     2.317161
      px      :     0.806635
      py      :     0.812854
      dz2     :     0.089600  d :     0.280464
      dxz     :     0.061664
      dyz     :     0.060112
      dx2y2   :     0.036757
      dxy     :     0.032332
      f0      :     0.003909  f :     0.024099
      f+1     :     0.006119
      f-1     :     0.005392
      f+2     :     0.002546
      f-2     :     0.002327
      f+3     :     0.001981
      f-3     :     0.001825
  4 H s       :     0.827958  s :     0.827958
      pz      :     0.007445  p :     0.034758
      px      :     0.017524
      py      :     0.009788
      dz2     :     0.000344  d :     0.002100
      dxz     :     0.000592
      dyz     :     0.000097
      dx2y2   :     0.000399
      dxy     :     0.000668
  5 H s       :     0.827513  s :     0.827513
      pz      :     0.008641  p :     0.034790
      px      :     0.009395
      py      :     0.016753
      dz2     :     0.000553  d :     0.002103
      dxz     :     0.000144
      dyz     :     0.000424
      dx2y2   :     0.000358
      dxy     :     0.000625
  6 O s       :     3.815938  s :     3.815938
      pz      :     1.565356  p :     4.476677
      px      :     1.433371
      py      :     1.477950
      dz2     :     0.005797  d :     0.031914
      dxz     :     0.006993
      dyz     :     0.006556
      dx2y2   :     0.007561
      dxy     :     0.005008
      f0      :     0.000219  f :     0.001832
      f+1     :     0.000307
      f-1     :     0.000244
      f+2     :     0.000423
      f-2     :     0.000335
      f+3     :     0.000167
      f-3     :     0.000137
  7 C s       :     3.097575  s :     3.097575
      pz      :     0.887880  p :     2.311468
      px      :     0.699260
      py      :     0.724327
      dz2     :     0.051669  d :     0.242822
      dxz     :     0.047888
[...]
     53      -0.049921   0.000030  -0.000174  -0.044099  -0.005352  -0.002680
     54      -0.527097   0.000401   0.002685   0.615171   0.007524   0.000610
     55       0.049819  -0.000035  -0.000322  -0.071920   0.000704   0.000646
     56      -0.374221   0.000293   0.001774   0.437807   0.004084  -0.000061
     57       0.000000  -0.000053  -0.000002  -0.000000  -0.000017   0.000015
     58       0.000001  -0.000039   0.000002   0.000001   0.000010  -0.000016
     59      -0.000009  -0.000003  -0.000006  -0.000000   0.000033  -0.000018
     60      -0.000043  -0.000605  -0.000033  -0.000002   0.000389  -0.000286
     61       0.000039  -0.000672   0.000030  -0.000005  -0.000409   0.000370
     62      -0.000006  -0.000098  -0.000014  -0.000002   0.000110  -0.000087
     63       0.002151  -0.000002   0.000056   0.000926  -0.057562   0.003094
     64       0.000613  -0.000004  -0.000004   0.001506  -0.016955  -0.076827
     65       0.000767  -0.000003   0.000049  -0.000299   0.013599  -0.022071
     66      -0.005627  -0.000049  -0.000036  -0.012391   0.619368   0.314316
     67      -0.004886   0.000015   0.000048  -0.014333   0.638404   0.305812
     68      -0.001878  -0.000002   0.000040  -0.006997  -0.041307  -0.023616
     69       0.001325   0.000015  -0.000007  -0.000433   0.156866  -0.327389
     70      -0.007973  -0.000013  -0.000130   0.001401  -0.384298   0.759046
     71       0.002339   0.000012  -0.000033   0.001781  -0.171586   0.340900
     72      -0.024873   0.000112  -0.000983   0.006633   0.019610  -0.023423
     73       0.009378   0.000073   0.000426  -0.004226  -0.012999  -0.002980
     74      -0.021029   0.000078  -0.000642   0.013607   0.025353  -0.018597
                 72         73         74    
      0       0.045374  -0.000208   0.000243
      1      -0.048609   0.000202  -0.000293
      2      -0.031495   0.000038   0.000077
      3      -0.611201   0.002165  -0.002519
      4       0.652515  -0.002213   0.002806
      5       0.441359  -0.001471   0.000763
      6       0.000151  -0.000017   0.000421
      7      -0.000168   0.000014  -0.000477
      8      -0.000307   0.000033  -0.000007
      9      -0.000544   0.000024  -0.001186
     10       0.000550  -0.000026   0.001585
     11       0.000464   0.000020  -0.001674
     12      -0.004046   0.000100  -0.001355
     13      -0.002817  -0.000007  -0.000650
     14       0.004535  -0.000045   0.001419
     15       0.002661   0.000017   0.000583
     16       0.003275  -0.000034   0.001106
     17       0.005592  -0.000109   0.001671
     18       0.000383  -0.000012  -0.000326
     19      -0.000403   0.000010   0.000241
     20      -0.000371  -0.000006   0.000853
     21      -0.000214   0.000113  -0.000122
     22       0.000337  -0.000118   0.000157
     23      -0.000677  -0.000107  -0.000110
     24       0.000173  -0.000971  -0.000017
     25      -0.000256   0.000091   0.000027
     26       0.000065  -0.001080   0.000002
     27      -0.001293  -0.000079   0.000070
     28       0.001479   0.000110  -0.000077
     29       0.000138  -0.000049   0.000008
     30      -0.000158  -0.032171   0.000012
     31      -0.000248  -0.065734  -0.000043
     32      -0.000070  -0.001360   0.000020
     33      -0.001557   0.006011   0.000140
     34       0.000994  -0.000113  -0.000004
     35       0.000252   0.000736  -0.000010
     36      -0.000289   0.001842  -0.000055
     37       0.001752   0.010184  -0.000171
     38       0.000450   0.001113  -0.000034
     39       0.001302   0.423133   0.000256
     40       0.003169   0.902102   0.000466
     41       0.000572   0.039776  -0.000064
     42       0.000157   0.001241  -0.000048
     43       0.000010  -0.001318  -0.000005
     44       0.000061  -0.000766  -0.000008
     45      -0.000008  -0.000310   0.000001
     46      -0.000001  -0.000250   0.000001
     47       0.000025   0.000225  -0.000005
     48      -0.000054   0.000720   0.000017
     49      -0.000024   0.000787   0.000005
     50      -0.000037  -0.000060   0.000006
     51       0.000016   0.005155  -0.000007
     52      -0.000173   0.004729   0.000029
     53       0.000064  -0.000752  -0.000017
     54       0.000012   0.001290   0.000012
     55       0.000002  -0.000089  -0.000004
     56       0.000123  -0.000118  -0.000018
     57       0.000277   0.000014  -0.037666
     58      -0.000254  -0.000017   0.045122
     59      -0.000360  -0.000004  -0.017990
     60      -0.002576  -0.000308   0.612671
     61       0.002935   0.000403  -0.733304
     62      -0.000188  -0.000140   0.288248
     63      -0.000982  -0.000047   0.000088
     64       0.000960  -0.000284  -0.000049
     65      -0.000006  -0.000035   0.000027
     66       0.001277   0.001435  -0.000222
     67       0.001164   0.001804  -0.000126
     68      -0.000068   0.000099   0.000002
     69       0.004729  -0.000874  -0.000196
     70      -0.011106   0.002456   0.000445
     71      -0.005111   0.001175   0.000197
     72       0.009309  -0.000541  -0.001120
     73      -0.004407   0.000376   0.000564
     74       0.005503   0.000434  -0.000620


-----------
IR SPECTRUM
-----------

 Mode   freq       eps      Int      T**2         TX        TY        TZ
       cm**-1   L/(mol*cm) km/mol    a.u.
----------------------------------------------------------------------------
  6:     25.00   0.000157    0.79  0.001963  ( 0.028420 -0.005447  0.033548)
  7:     60.26   0.000467    2.36  0.002417  ( 0.013581 -0.007970  0.046571)
  8:     63.25   0.000206    1.04  0.001015  (-0.030918 -0.007230 -0.002522)
  9:     67.83   0.000707    3.57  0.003253  (-0.044019 -0.033489  0.013928)
 10:     93.12   0.001632    8.25  0.005470  (-0.049527 -0.003957 -0.054785)
 11:    128.94   0.005151   26.03  0.012467  (-0.009404 -0.092828  0.061333)
 12:    169.35   0.011257   56.89  0.020744  ( 0.098776 -0.055297  0.089046)
 13:    183.11   0.000832    4.20  0.001417  ( 0.024778  0.027922  0.004855)
 14:    265.74   0.005676   28.68  0.006665  (-0.075881  0.015056  0.026087)
 15:    268.73   0.007958   40.22  0.009241  (-0.041268  0.052428  0.069207)
 16:    301.34   0.001303    6.59  0.001350  ( 0.018068  0.000285 -0.031990)
 17:    307.40   0.001458    7.37  0.001480  (-0.027098  0.027200 -0.002440)
 18:    351.88   0.000396    2.00  0.000351  (-0.006217  0.012704  0.012299)
 19:    403.83   0.010484   52.98  0.008102  ( 0.064806 -0.047551  0.040506)
 20:    433.15   0.003777   19.09  0.002721  ( 0.021923 -0.028072  0.038114)
 21:    522.18   0.007897   39.91  0.004719  ( 0.053000  0.042729  0.009188)
 22:    538.06   0.001598    8.07  0.000927  (-0.008746  0.011511  0.026788)
 23:    563.72   0.001104    5.58  0.000611  (-0.011866 -0.002397 -0.021557)
 24:    590.67   0.013943   70.46  0.007366  (-0.039169 -0.032421  0.069144)
 25:    636.20   0.012157   61.44  0.005963  (-0.023212  0.041705 -0.060704)
 26:    660.79   0.005634   28.47  0.002661  (-0.038045 -0.029585  0.018387)
 27:    671.39   0.020337  102.77  0.009453  ( 0.063615  0.063719  0.036684)
 28:    687.35   0.014661   74.09  0.006656  ( 0.061646  0.026125 -0.046622)
 29:    734.28   0.002667   13.48  0.001133  (-0.028530  0.017293  0.004518)
 30:    787.56   0.002183   11.03  0.000865  (-0.001833  0.000056  0.029354)
 31:    878.19   0.001616    8.16  0.000574  (-0.009590  0.019862  0.009362)
 32:    889.42   0.001142    5.77  0.000401  (-0.002890 -0.009212  0.017536)
 33:    912.79   0.002594   13.11  0.000887  ( 0.013117 -0.000375  0.026730)
 34:    981.54   0.001179    5.96  0.000375  ( 0.009302  0.003691 -0.016574)
 35:    996.88   0.013336   67.40  0.004175  ( 0.038290 -0.032936  0.040297)
 36:   1025.32   0.000590    2.98  0.000179  ( 0.009906  0.008979 -0.000828)
 37:   1057.03   0.001070    5.41  0.000316  (-0.017260  0.004245  0.000120)
 38:   1076.45   0.002856   14.43  0.000828  (-0.027017 -0.005890 -0.007965)
 39:   1132.39   0.006100   30.83  0.001681  ( 0.000193  0.023072 -0.033891)
 40:   1141.91   0.010507   53.10  0.002871  ( 0.035497 -0.040045  0.002785)
 41:   1159.85   0.008873   44.84  0.002387  (-0.021267  0.012323 -0.042226)
 42:   1208.01   0.043228  218.46  0.011167  ( 0.013945 -0.029780  0.100427)
 43:   1251.88   0.000487    2.46  0.000121  (-0.009216 -0.005596 -0.002280)
 44:   1274.66   0.000306    1.55  0.000075  ( 0.007614 -0.004102  0.000430)
 45:   1282.17   0.001365    6.90  0.000332  ( 0.008086 -0.016113  0.002679)
 46:   1302.38   0.008703   43.98  0.002085  (-0.038130  0.025099 -0.001221)
 47:   1331.35   0.001464    7.40  0.000343  ( 0.010728  0.006686  0.013541)
 48:   1337.20   0.005770   29.16  0.001347  (-0.026858  0.015454 -0.019659)
 49:   1387.23   0.013428   67.86  0.003021  ( 0.030816 -0.039493  0.022614)
 50:   1421.02   0.000667    3.37  0.000146  (-0.005631  0.003142  0.010242)
 51:   1464.78   0.030473  154.00  0.006492  ( 0.021119 -0.023959  0.073973)
 52:   1475.98   0.003853   19.47  0.000815  (-0.007606  0.027506  0.000335)
 53:   1496.34   0.005637   28.49  0.001176  (-0.022194  0.018304  0.018654)
 54:   1504.87   0.002263   11.44  0.000469  (-0.002587  0.018714 -0.010604)
 55:   1541.10   0.027643  139.70  0.005598  (-0.054026  0.027688  0.043729)
 56:   1570.76   0.039648  200.36  0.007877  ( 0.087209 -0.016124  0.003391)
 57:   1605.75   0.038863  196.40  0.007553  (-0.016190  0.021900 -0.082529)
 58:   1625.03   0.032340  163.43  0.006211  (-0.020226  0.070168 -0.029630)
 59:   1681.90   0.040528  204.81  0.007520  ( 0.062399 -0.058750  0.013209)
 60:   1725.27   0.074853  378.27  0.013539  ( 0.070590 -0.088211  0.027840)
 61:   1819.45   0.046126  233.10  0.007911  (-0.075245 -0.045829 -0.012219)
 62:   1854.80   0.055524  280.60  0.009342  (-0.044268  0.042278  0.074798)
 63:   2987.13   0.187248  946.27  0.019562  (-0.106448  0.069852 -0.057889)
 64:   3097.19   0.001693    8.56  0.000171  ( 0.002622 -0.005178  0.011700)
 65:   3120.27   0.002094   10.58  0.000209  ( 0.010490 -0.003780  0.009223)
 66:   3132.62   0.000630    3.18  0.000063  (-0.007843 -0.000740 -0.000818)
 67:   3138.96   0.000099    0.50  0.000010  ( 0.002721  0.001517  0.000311)
 68:   3173.90   0.000188    0.95  0.000018  (-0.002335 -0.002936 -0.002097)
 69:   3203.28   0.000127    0.64  0.000012  ( 0.000941 -0.002452  0.002334)
 70:   3477.61   0.016767   84.73  0.001505  ( 0.038112  0.003113 -0.006508)
 71:   3557.78   0.021228  107.28  0.001862  (-0.006541  0.041350  0.010457)
 72:   3590.03   0.030064  151.93  0.002613  (-0.032974  0.038260 -0.007887)
 73:   3660.97   0.008887   44.91  0.000758  ( 0.017829  0.020763 -0.002923)
 74:   3796.89   0.028879  145.94  0.002374  ( 0.023753 -0.030745  0.029395)

* The epsilon (eps) is given for a Dirac delta lineshape.
** The dipole moment derivative (T) already includes vibrational overlap.

The first frequency considered to be a vibration is 6
The total number of vibrations considered is 69


--------------------------
THERMOCHEMISTRY AT 298.15K
--------------------------

Temperature         ... 298.15 K
Pressure            ... 1.00 atm
Total Mass          ... 190.18 AMU

Throughout the following assumptions are being made:
  (1) The electronic state is orbitally nondegenerate
  (2) There are no thermally accessible electronically excited states
  (3) Hindered rotations indicated by low frequency modes are not
      treated as such but are treated as vibrations and this may
      cause some error
  (4) All equations used are the standard statistical mechanics
      equations for an ideal gas
  (5) All vibrations are strictly harmonic

freq.      25.00  E(vib)   ...       0.56 
freq.      60.26  E(vib)   ...       0.51 
freq.      63.25  E(vib)   ...       0.51 
freq.      67.83  E(vib)   ...       0.50 
freq.      93.12  E(vib)   ...       0.47 
freq.     128.94  E(vib)   ...       0.43 
freq.     169.35  E(vib)   ...       0.38 
freq.     183.11  E(vib)   ...       0.37 
freq.     265.74  E(vib)   ...       0.29 
freq.     268.73  E(vib)   ...       0.29 
freq.     301.34  E(vib)   ...       0.26 
freq.     307.40  E(vib)   ...       0.26 
freq.     351.88  E(vib)   ...       0.23 
freq.     403.83  E(vib)   ...       0.19 
freq.     433.15  E(vib)   ...       0.17 
freq.     522.18  E(vib)   ...       0.13 
freq.     538.06  E(vib)   ...       0.12 
freq.     563.72  E(vib)   ...       0.11 
freq.     590.67  E(vib)   ...       0.10 
freq.     636.20  E(vib)   ...       0.09 
freq.     660.79  E(vib)   ...       0.08 
freq.     671.39  E(vib)   ...       0.08 
freq.     687.35  E(vib)   ...       0.07 
freq.     734.28  E(vib)   ...       0.06 
freq.     787.56  E(vib)   ...       0.05 
freq.     878.19  E(vib)   ...       0.04 
freq.     889.42  E(vib)   ...       0.04 
freq.     912.79  E(vib)   ...       0.03 
freq.     981.54  E(vib)   ...       0.02 
freq.     996.88  E(vib)   ...       0.02 
freq.    1025.32  E(vib)   ...       0.02 
freq.    1057.03  E(vib)   ...       0.02 
freq.    1076.45  E(vib)   ...       0.02 
freq.    1132.39  E(vib)   ...       0.01 
freq.    1141.91  E(vib)   ...       0.01 
freq.    1159.85  E(vib)   ...       0.01 
freq.    1208.01  E(vib)   ...       0.01 
freq.    1251.88  E(vib)   ...       0.01 
freq.    1274.66  E(vib)   ...       0.01 
freq.    1282.17  E(vib)   ...       0.01 
freq.    1302.38  E(vib)   ...       0.01 
freq.    1331.35  E(vib)   ...       0.01 
freq.    1337.20  E(vib)   ...       0.01 
freq.    1387.23  E(vib)   ...       0.00 
freq.    1421.02  E(vib)   ...       0.00 
freq.    1464.78  E(vib)   ...       0.00 
freq.    1475.98  E(vib)   ...       0.00 
freq.    1496.34  E(vib)   ...       0.00 
freq.    1504.87  E(vib)   ...       0.00 
freq.    1541.10  E(vib)   ...       0.00 
freq.    1570.76  E(vib)   ...       0.00 
freq.    1605.75  E(vib)   ...       0.00 
freq.    1625.03  E(vib)   ...       0.00 
freq.    1681.90  E(vib)   ...       0.00 
freq.    1725.27  E(vib)   ...       0.00 
freq.    1819.45  E(vib)   ...       0.00 
freq.    1854.80  E(vib)   ...       0.00 
freq.    2987.13  E(vib)   ...       0.00 
freq.    3097.19  E(vib)   ...       0.00 
freq.    3120.27  E(vib)   ...       0.00 
freq.    3132.62  E(vib)   ...       0.00 
freq.    3138.96  E(vib)   ...       0.00 
freq.    3173.90  E(vib)   ...       0.00 
freq.    3203.28  E(vib)   ...       0.00 
freq.    3477.61  E(vib)   ...       0.00 
freq.    3557.78  E(vib)   ...       0.00 
freq.    3590.03  E(vib)   ...       0.00 
freq.    3660.97  E(vib)   ...       0.00 
freq.    3796.89  E(vib)   ...       0.00 

------------
INNER ENERGY
------------

The inner energy is: U= E(el) + E(ZPE) + E(vib) + E(rot) + E(trans)
    E(el)   - is the total energy from the electronic structure calculation
              = E(kin-el) + E(nuc-el) + E(el-el) + E(nuc-nuc)
    E(ZPE)  - the the zero temperature vibrational energy from the frequency calculation
    E(vib)  - the the finite temperature correction to E(ZPE) due to population
              of excited vibrational states
    E(rot)  - is the rotational thermal energy
    E(trans)- is the translational thermal energy

Summary of contributions to the inner energy U:
Electronic energy                ...   -701.34970701 Eh
Zero point energy                ...      0.20928493 Eh     131.33 kcal/mol
Thermal vibrational correction   ...      0.01061641 Eh       6.66 kcal/mol
Thermal rotational correction    ...      0.00141627 Eh       0.89 kcal/mol
Thermal translational correction ...      0.00141627 Eh       0.89 kcal/mol
-----------------------------------------------------------------------
Total thermal energy                   -701.12697313 Eh


Summary of corrections to the electronic energy:
(perhaps to be used in another calculation)
Total thermal correction                  0.01344896 Eh       8.44 kcal/mol
Non-thermal (ZPE) correction              0.20928493 Eh     131.33 kcal/mol
-----------------------------------------------------------------------
Total correction                          0.22273388 Eh     139.77 kcal/mol


--------
ENTHALPY
--------

The enthalpy is H = U + kB*T
                kB is Boltzmann's constant
Total free energy                 ...   -701.12697313 Eh 
Thermal Enthalpy correction       ...      0.00094421 Eh       0.59 kcal/mol
-----------------------------------------------------------------------
Total Enthalpy                    ...   -701.12602892 Eh


Note: Only C1 symmetry has been detected, increase convergence thresholds 
      if your molecule has a higher symmetry. Symmetry factor of 1.0 is   
      used for the rotational entropy correction. 
 

Note: Rotational entropy computed according to Herzberg 
Infrared and Raman Spectra, Chapter V,1, Van Nostrand Reinhold, 1945 
Point Group:  C1, Symmetry Number:   1  
Rotational constants in cm-1:     0.065611     0.010768     0.009894 

Vibrational entropy computed according to the QRRHO of S. Grimme
Chem.Eur.J. 2012 18 9955


-------
ENTROPY
-------

The entropy contributions are T*S = T*(S(el)+S(vib)+S(rot)+S(trans))
     S(el)   - electronic entropy
     S(vib)  - vibrational entropy
     S(rot)  - rotational entropy
     S(trans)- translational entropy
The entropies will be listed as multiplied by the temperature to get
units of energy

Electronic entropy                ...      0.00000000 Eh      0.00 kcal/mol
Vibrational entropy               ...      0.01890868 Eh     11.87 kcal/mol
Rotational entropy                ...      0.01511502 Eh      9.48 kcal/mol
Translational entropy             ...      0.01978162 Eh     12.41 kcal/mol
-----------------------------------------------------------------------
Final entropy term                ...      0.05380531 Eh     33.76 kcal/mol

In case the symmetry of your molecule has not been determined correctly
or in case you have a reason to use a different symmetry number we print 
out the resulting rotational entropy values for sn=1,12 :
 --------------------------------------------------------
|  sn= 1 | S(rot)=       0.01511502 Eh      9.48 kcal/mol|
|  sn= 2 | S(rot)=       0.01446056 Eh      9.07 kcal/mol|
|  sn= 3 | S(rot)=       0.01407773 Eh      8.83 kcal/mol|
|  sn= 4 | S(rot)=       0.01380611 Eh      8.66 kcal/mol|
|  sn= 5 | S(rot)=       0.01359542 Eh      8.53 kcal/mol|
|  sn= 6 | S(rot)=       0.01342327 Eh      8.42 kcal/mol|
|  sn= 7 | S(rot)=       0.01327773 Eh      8.33 kcal/mol|
|  sn= 8 | S(rot)=       0.01315165 Eh      8.25 kcal/mol|
|  sn= 9 | S(rot)=       0.01304044 Eh      8.18 kcal/mol|
|  sn=10 | S(rot)=       0.01294096 Eh      8.12 kcal/mol|
|  sn=11 | S(rot)=       0.01285097 Eh      8.06 kcal/mol|
|  sn=12 | S(rot)=       0.01276882 Eh      8.01 kcal/mol|
 --------------------------------------------------------


-------------------
GIBBS FREE ENERGY
-------------------

The Gibbs free energy is G = H - T*S

Total enthalpy                    ...   -701.12602892 Eh 
Total entropy correction          ...     -0.05380531 Eh    -33.76 kcal/mol
-----------------------------------------------------------------------
Final Gibbs free energy         ...   -701.17983423 Eh

For completeness - the Gibbs free energy minus the electronic energy
G-E(el)                           ...      0.16987278 Eh    106.60 kcal/mol


Timings for individual modules:

Sum of individual times         ...     8156.605 sec (= 135.943 min)
GTO integral calculation        ...       32.735 sec (=   0.546 min)   0.4 %
SCF iterations                  ...     2603.582 sec (=  43.393 min)  31.9 %
SCF Gradient evaluation         ...      530.809 sec (=   8.847 min)   6.5 %
Geometry relaxation             ...        1.472 sec (=   0.025 min)   0.0 %
Analytical frequency calculation...     4495.967 sec (=  74.933 min)  55.1 %
CHELPG charge generation        ...      492.040 sec (=   8.201 min)   6.0 %
                             ****ORCA TERMINATED NORMALLY****
TOTAL RUN TIME: 0 days 2 hours 17 minutes 56 seconds 791 msec
