
Lmod is automatically replacing "intel/2020.1.217" with "gcc/10.3.0".


Due to MODULEPATH changes, the following have been reloaded:
  1) blis/0.8.1     2) flexiblas/3.0.4

The following have been reloaded with a version change:
  1) gcccore/.9.3.0 => gcccore/.10.3.0        3) openmpi/4.0.3 => openmpi/4.1.1
  2) libfabric/1.10.1 => libfabric/1.12.1     4) ucx/1.8.0 => ucx/1.9.0

To execute ORCA, run: 
   ${EBROOTORCA}/orca orca.inp > orca.out

                                 *****************
                                 * O   R   C   A *
                                 *****************

                                            #,                                       
                                            ###                                      
                                            ####                                     
                                            #####                                    
                                            ######                                   
                                           ########,                                 
                                     ,,################,,,,,                         
                               ,,#################################,,                 
                          ,,##########################################,,             
                       ,#########################################, ''#####,          
                    ,#############################################,,   '####,        
                  ,##################################################,,,,####,       
                ,###########''''           ''''###############################       
              ,#####''   ,,,,##########,,,,          '''####'''          '####       
            ,##' ,,,,###########################,,,                        '##       
           ' ,,###''''                  '''############,,,                           
         ,,##''                                '''############,,,,        ,,,,,,###''
      ,#''                                            '''#######################'''  
     '                                                          ''''####''''         
             ,#######,   #######,   ,#######,      ##                                
            ,#'     '#,  ##    ##  ,#'     '#,    #''#        ######   ,####,        
            ##       ##  ##   ,#'  ##            #'  '#       #        #'  '#        
            ##       ##  #######   ##           ,######,      #####,   #    #        
            '#,     ,#'  ##    ##  '#,     ,#' ,#      #,         ##   #,  ,#        
             '#######'   ##     ##  '#######'  #'      '#     #####' # '####'        



                  #######################################################
                  #                        -***-                        #
                  #          Department of theory and spectroscopy      #
                  #    Directorship and core code : Frank Neese         #
                  #        Max Planck Institute fuer Kohlenforschung    #
                  #                Kaiser Wilhelm Platz 1               #
                  #                 D-45470 Muelheim/Ruhr               #
                  #                      Germany                        #
                  #                                                     #
                  #                  All rights reserved                #
                  #                        -***-                        #
                  #######################################################


                         Program Version 5.0.2 -  RELEASE  -


 With contributions from (in alphabetic order):
   Daniel Aravena         : Magnetic Suceptibility
   Michael Atanasov       : Ab Initio Ligand Field Theory (pilot matlab implementation)
   Alexander A. Auer      : GIAO ZORA, VPT2 properties, NMR spectrum
   Ute Becker             : Parallelization
   Giovanni Bistoni       : ED, misc. LED, open-shell LED, HFLD
   Martin Brehm           : Molecular dynamics
   Dmytro Bykov           : SCF Hessian
   Vijay G. Chilkuri      : MRCI spin determinant printing, contributions to CSF-ICE
   Dipayan Datta          : RHF DLPNO-CCSD density
   Achintya Kumar Dutta   : EOM-CC, STEOM-CC
   Dmitry Ganyushin       : Spin-Orbit,Spin-Spin,Magnetic field MRCI
   Miquel Garcia          : C-PCM and meta-GGA Hessian, CC/C-PCM, Gaussian charge scheme
   Yang Guo               : DLPNO-NEVPT2, F12-NEVPT2, CIM, IAO-localization
   Andreas Hansen         : Spin unrestricted coupled pair/coupled cluster methods
   Benjamin Helmich-Paris : MC-RPA, TRAH-SCF, COSX integrals
   Lee Huntington         : MR-EOM, pCC
   Robert Izsak           : Overlap fitted RIJCOSX, COSX-SCS-MP3, EOM
   Marcus Kettner         : VPT2
   Christian Kollmar      : KDIIS, OOCD, Brueckner-CCSD(T), CCSD density, CASPT2, CASPT2-K
   Simone Kossmann        : Meta GGA functionals, TD-DFT gradient, OOMP2, MP2 Hessian
   Martin Krupicka        : Initial AUTO-CI
   Lucas Lang             : DCDCAS
   Marvin Lechner         : AUTO-CI (C++ implementation), FIC-MRCC
   Dagmar Lenk            : GEPOL surface, SMD
   Dimitrios Liakos       : Extrapolation schemes; Compound Job, initial MDCI parallelization
   Dimitrios Manganas     : Further ROCIS development; embedding schemes
   Dimitrios Pantazis     : SARC Basis sets
   Anastasios Papadopoulos: AUTO-CI, single reference methods and gradients
   Taras Petrenko         : DFT Hessian,TD-DFT gradient, ASA, ECA, R-Raman, ABS, FL, XAS/XES, NRVS
   Peter Pinski           : DLPNO-MP2, DLPNO-MP2 Gradient
   Christoph Reimann      : Effective Core Potentials
   Marius Retegan         : Local ZFS, SOC
   Christoph Riplinger    : Optimizer, TS searches, QM/MM, DLPNO-CCSD(T), (RO)-DLPNO pert. Triples
   Tobias Risthaus        : Range-separated hybrids, TD-DFT gradient, RPA, STAB
   Michael Roemelt        : Original ROCIS implementation
   Masaaki Saitow         : Open-shell DLPNO-CCSD energy and density
   Barbara Sandhoefer     : DKH picture change effects
   Avijit Sen             : IP-ROCIS
   Kantharuban Sivalingam : CASSCF convergence, NEVPT2, FIC-MRCI
   Bernardo de Souza      : ESD, SOC TD-DFT
   Georgi Stoychev        : AutoAux, RI-MP2 NMR, DLPNO-MP2 response
   Willem Van den Heuvel  : Paramagnetic NMR
   Boris Wezisla          : Elementary symmetry handling
   Frank Wennmohs         : Technical directorship


 We gratefully acknowledge several colleagues who have allowed us to
 interface, adapt or use parts of their codes:
   Stefan Grimme, W. Hujo, H. Kruse, P. Pracht,  : VdW corrections, initial TS optimization,
                  C. Bannwarth, S. Ehlert          DFT functionals, gCP, sTDA/sTD-DF
   Ed Valeev, F. Pavosevic, A. Kumar             : LibInt (2-el integral package), F12 methods
   Garnet Chan, S. Sharma, J. Yang, R. Olivares  : DMRG
   Ulf Ekstrom                                   : XCFun DFT Library
   Mihaly Kallay                                 : mrcc  (arbitrary order and MRCC methods)
   Jiri Pittner, Ondrej Demel                    : Mk-CCSD
   Frank Weinhold                                : gennbo (NPA and NBO analysis)
   Christopher J. Cramer and Donald G. Truhlar   : smd solvation model
   Lars Goerigk                                  : TD-DFT with DH, B97 family of functionals
   V. Asgeirsson, H. Jonsson                     : NEB implementation
   FAccTs GmbH                                   : IRC, NEB, NEB-TS, DLPNO-Multilevel, CI-OPT
                                                   MM, QMMM, 2- and 3-layer-ONIOM, Crystal-QMMM,
                                                   LR-CPCM, SF, NACMEs, symmetry and pop. for TD-DFT,
                                                   nearIR, NL-DFT gradient (VV10), updates on ESD,
                                                   ML-optimized integration grids
   S Lehtola, MJT Oliveira, MAL Marques          : LibXC Library
   Liviu Ungur et al                             : ANISO software


 Your calculation uses the libint2 library for the computation of 2-el integrals
 For citations please refer to: http://libint.valeyev.net

 Your ORCA version has been built with support for libXC version: 5.1.0
 For citations please refer to: https://tddft.org/programs/libxc/

 This ORCA versions uses:
   CBLAS   interface :  Fast vector & matrix operations
   LAPACKE interface :  Fast linear algebra routines
   SCALAPACK package :  Parallel linear algebra routines
   Shared memory     :  Shared parallel matrices
   BLAS/LAPACK       :  OpenBLAS 0.3.15  USE64BITINT DYNAMIC_ARCH NO_AFFINITY Zen SINGLE_THREADED
        Core in use  :  Zen
   Copyright (c) 2011-2014, The OpenBLAS Project


Your calculation utilizes the atom-pairwise dispersion correction
with the Becke-Johnson damping scheme (D3BJ)
Cite in your paper:
S.Grimme, S.Ehrlich, L.Goerigk, J Comput Chem, (2011), 32, 1456–1465 
S.Grimme, J.Antony, S.Ehrlich and H.Krieg, J.Chem.Phys., 132, (2010), 154104 
   

================================================================================

----- Orbital basis set information -----
Your calculation utilizes the basis: def2-TZVPP
   F. Weigend and R. Ahlrichs, Phys. Chem. Chem. Phys. 7, 3297 (2005).

----- AuxJ basis set information -----
Your calculation utilizes the auxiliary basis: def2/J
   F. Weigend, Phys. Chem. Chem. Phys. 8, 1057 (2006).

================================================================================
                                        WARNINGS
                       Please study these warnings very carefully!
================================================================================


WARNING: Geometry Optimization
  ===> : Switching off AutoStart
         For restart on a previous wavefunction, please use MOREAD

INFO   : the flag for use of the SHARK integral package has been found!

================================================================================
                                       INPUT FILE
================================================================================
NAME = GGG-H_tt_000_OptFreq.inp
|  1> # GGG-H_tt_000 (old 001)
|  2> ! wB97X-D3BJ Opt Freq def2-TZVPP def2/J RIJCOSX VeryTightSCF
|  3> ! PAL8 defgrid3 VeryTightOpt
|  4> 
|  5> %maxcore 4096
|  6> 
|  7> %geom
|  8>   MaxIter 300
|  9>   # MaxStep 0.1
| 10>   Calc_Hess true
| 11>   Recalc_Hess 10
| 12> end
| 13> 
| 14> %chelpg
| 15>   grid 0.1
| 16>   rmax 3.0
| 17> end
| 18> 
| 19> * xyz 1 1 
| 20>  N   -0.062596   +1.069860   -2.545680
| 21>  H   -0.103875   +0.071484   -2.353411
| 22>  C   +0.643193   +1.480458   -3.731724
| 23>  C   +1.955515   +0.727392   -3.880713
| 24>  H   +0.056750   +1.336083   -4.659401
| 25>  H   +0.841269   +2.565181   -3.645014
| 26>  O   +2.346115   -0.148313   -3.106380
| 27>  C   -0.295692   +1.951980   -1.510093
| 28>  C   -0.705011   +1.276222   -0.179308
| 29>  O   -0.198879   +3.160407   -1.619022
| 30>  N   +0.000000   +0.000000   +0.000000
| 31>  H   -1.788562   +1.081232   -0.158903
| 32>  H   -0.451321   +1.983829   +0.624079
| 33>  H   -0.521117   -0.874120   +0.062019
| 34>  C   +1.348329   +0.000000   +0.000000
| 35>  C   +2.096697   -1.346866   -0.098004
| 36>  O   +2.032422   +1.028217   +0.000000
| 37>  H   +1.582189   -2.100042   -0.712283
| 38>  H   +2.307944   -1.761092   +0.901280
| 39>  O   +2.622601   +1.094725   -4.968783
| 40>  H   +3.447246   +0.567361   -5.041426
| 41>  N   +3.385310   -0.952532   -0.748101
| 42>  H   +4.171656   -1.591622   -0.573687
| 43>  H   +3.219596   -0.799873   -1.778234
| 44>  H   +3.555548   +0.017379   -0.367481
| 45> *
| 46> 
| 47>                          ****END OF INPUT****
================================================================================

                       *****************************
                       * Geometry Optimization Run *
                       *****************************

Geometry optimization settings:
Update method            Update   .... BFGS
Choice of coordinates    CoordSys .... Z-matrix Internals
Initial Hessian          InHess   .... Almoef's Model

Convergence Tolerances:
Energy Change            TolE     ....  2.0000e-07 Eh
Max. Gradient            TolMAXG  ....  3.0000e-05 Eh/bohr
RMS Gradient             TolRMSG  ....  8.0000e-06 Eh/bohr
Max. Displacement        TolMAXD  ....  2.0000e-04 bohr
RMS Displacement         TolRMSD  ....  1.0000e-04 bohr
Strict Convergence                ....  False
------------------------------------------------------------------------------
                        ORCA OPTIMIZATION COORDINATE SETUP
------------------------------------------------------------------------------

The optimization will be done in new redundant internal coordinates
Making redundant internal coordinates   ...  (new redundants) done
Evaluating the initial hessian          ...  (Is done on the fly) done
Evaluating the coordinates              ...  done
Calculating the B-matrix                .... done
Calculating the G-matrix                .... done
Diagonalizing the G-matrix              .... done
Small eigenvalue found = 9.944e-03
Small eigenvalue found = 1.695e-02
Small eigenvalue found = 2.600e-02
The first mode is                       ....   45
The number of degrees of freedom        ....   69

    -----------------------------------------------------------------
                    Redundant Internal Coordinates


    -----------------------------------------------------------------
         Definition                    Initial Value    d2E/dq (diagonal element)
    -----------------------------------------------------------------
      1. B(H   1,N   0)                  1.0176         0.000000   
      2. B(C   2,N   0)                  1.4399         0.000000   
      3. B(C   3,C   2)                  1.5204         0.000000   
      4. B(H   4,C   2)                  1.1070         0.000000   
      5. B(H   5,C   2)                  1.1061         0.000000   
      6. B(O   6,C   3)                  1.2325         0.000000   
      7. B(C   7,N   0)                  1.3802         0.000000   
      8. B(C   8,C   7)                  1.5476         0.000000   
      9. B(O   9,C   7)                  1.2172         0.000000   
     10. B(N  10,C   8)                  1.4690         0.000000   
     11. B(H  11,C   8)                  1.1011         0.000000   
     12. B(H  12,C   8)                  1.1002         0.000000   
     13. B(H  13,N  10)                  1.0196         0.000000   
     14. B(C  14,N  10)                  1.3483         0.000000   
     15. B(C  15,C  14)                  1.5439         0.000000   
     16. B(O  16,C  14)                  1.2350         0.000000   
     17. B(H  17,C  15)                  1.0997         0.000000   
     18. B(H  18,C  15)                  1.1022         0.000000   
     19. B(O  19,C   3)                  1.3281         0.000000   
     20. B(H  20,O  19)                  0.9815         0.000000   
     21. B(N  21,C  15)                  1.4962         0.000000   
     22. B(H  22,N  21)                  1.0282         0.000000   
     23. B(H  23,H  20)                  3.5454         0.000000   
     24. B(H  23,N  21)                  1.0545         0.000000   
     25. B(H  24,N  21)                  1.0557         0.000000   
     26. A(H   1,N   0,C   2)          117.0837         0.000000   
     27. A(C   2,N   0,C   7)          121.2355         0.000000   
     28. A(H   1,N   0,C   7)          118.5847         0.000000   
     29. A(C   3,C   2,H   5)          109.8080         0.000000   
     30. A(C   3,C   2,H   4)          108.0931         0.000000   
     31. A(N   0,C   2,H   4)          113.1671         0.000000   
     32. A(N   0,C   2,C   3)          111.2574         0.000000   
     33. A(N   0,C   2,H   5)          107.6290         0.000000   
     34. A(H   4,C   2,H   5)          106.7671         0.000000   
     35. A(O   6,C   3,O  19)          123.5083         0.000000   
     36. A(C   2,C   3,O  19)          112.1383         0.000000   
     37. A(C   2,C   3,O   6)          124.3275         0.000000   
     38. A(C   8,C   7,O   9)          122.1060         0.000000   
     39. A(N   0,C   7,O   9)          123.6386         0.000000   
     40. A(N   0,C   7,C   8)          114.2544         0.000000   
     41. A(C   7,C   8,H  11)          110.7020         0.000000   
     42. A(C   7,C   8,N  10)          110.9386         0.000000   
     43. A(H  11,C   8,H  12)          109.1021         0.000000   
     44. A(N  10,C   8,H  12)          111.0362         0.000000   
     45. A(C   7,C   8,H  12)          106.6235         0.000000   
     46. A(N  10,C   8,H  11)          108.4307         0.000000   
     47. A(H  13,N  10,C  14)          120.7386         0.000000   
     48. A(C   8,N  10,C  14)          118.6807         0.000000   
     49. A(C   8,N  10,H  13)          120.4622         0.000000   
     50. A(C  15,C  14,O  16)          117.2456         0.000000   
     51. A(N  10,C  14,O  16)          123.6366         0.000000   
     52. A(N  10,C  14,C  15)          118.9940         0.000000   
     53. A(H  17,C  15,H  18)          109.7987         0.000000   
     54. A(C  14,C  15,H  18)          111.2975         0.000000   
     55. A(C  14,C  15,H  17)          113.9634         0.000000   
     56. A(H  18,C  15,N  21)          109.1423         0.000000   
     57. A(H  17,C  15,N  21)          109.9226         0.000000   
     58. A(C  14,C  15,N  21)          102.4230         0.000000   
     59. A(C   3,O  19,H  20)          109.5134         0.000000   
     60. A(H  23,N  21,H  24)          104.1545         0.000000   
     61. A(H  22,N  21,H  24)          112.7403         0.000000   
     62. A(C  15,N  21,H  24)          102.9652         0.000000   
     63. A(H  22,N  21,H  23)          112.0789         0.000000   
     64. A(C  15,N  21,H  23)          109.1031         0.000000   
     65. A(C  15,N  21,H  22)          114.9070         0.000000   
     66. D(H   4,C   2,N   0,C   7)   -122.1823         0.000000   
     67. D(H   5,C   2,N   0,C   7)     -4.4571         0.000000   
     68. D(H   5,C   2,N   0,H   1)   -164.2778         0.000000   
     69. D(H   4,C   2,N   0,H   1)     77.9970         0.000000   
     70. D(C   3,C   2,N   0,H   1)    -43.9365         0.000000   
     71. D(C   3,C   2,N   0,C   7)    115.8842         0.000000   
     72. D(O   6,C   3,C   2,H   4)   -122.9197         0.000000   
     73. D(O  19,C   3,C   2,H   5)    -60.8363         0.000000   
     74. D(O  19,C   3,C   2,H   4)     55.2836         0.000000   
     75. D(O   6,C   3,C   2,H   5)    120.9604         0.000000   
     76. D(O  19,C   3,C   2,N   0)   -179.8827         0.000000   
     77. D(O   6,C   3,C   2,N   0)      1.9140         0.000000   
     78. D(O   9,C   7,N   0,H   1)    175.8840         0.000000   
     79. D(C   8,C   7,N   0,C   2)   -164.0051         0.000000   
     80. D(C   8,C   7,N   0,H   1)     -4.4780         0.000000   
     81. D(O   9,C   7,N   0,C   2)     16.3569         0.000000   
     82. D(H  12,C   8,C   7,O   9)    -23.6383         0.000000   
     83. D(H  12,C   8,C   7,N   0)    156.7175         0.000000   
     84. D(H  11,C   8,C   7,O   9)     94.9119         0.000000   
     85. D(N  10,C   8,C   7,O   9)   -144.6585         0.000000   
     86. D(N  10,C   8,C   7,N   0)     35.6972         0.000000   
     87. D(H  11,C   8,C   7,N   0)    -84.7323         0.000000   
     88. D(C  14,N  10,C   8,H  12)    -60.5290         0.000000   
     89. D(C  14,N  10,C   8,H  11)    179.6203         0.000000   
     90. D(C  14,N  10,C   8,C   7)     57.8523         0.000000   
     91. D(H  13,N  10,C   8,H  12)    123.3990         0.000000   
     92. D(H  13,N  10,C   8,H  11)      3.5484         0.000000   
     93. D(H  13,N  10,C   8,C   7)   -118.2196         0.000000   
     94. D(O  16,C  14,N  10,C   8)      7.9977         0.000000   
     95. D(C  15,C  14,N  10,H  13)      8.2201         0.000000   
     96. D(C  15,C  14,N  10,C   8)   -167.8406         0.000000   
     97. D(O  16,C  14,N  10,H  13)   -175.9417         0.000000   
     98. D(N  21,C  15,C  14,O  16)    -23.7049         0.000000   
     99. D(N  21,C  15,C  14,N  10)    152.3981         0.000000   
    100. D(H  18,C  15,C  14,O  16)     92.7994         0.000000   
    101. D(H  18,C  15,C  14,N  10)    -91.0976         0.000000   
    102. D(H  17,C  15,C  14,O  16)   -142.3735         0.000000   
    103. D(H  17,C  15,C  14,N  10)     33.7296         0.000000   
    104. D(H  20,O  19,C   3,O   6)     -0.0811         0.000000   
    105. D(H  20,O  19,C   3,C   2)   -178.3017         0.000000   
    106. D(H  24,N  21,C  15,H  18)    -84.6353         0.000000   
    107. D(H  24,N  21,C  15,H  17)    154.8890         0.000000   
    108. D(H  24,N  21,C  15,C  14)     33.4087         0.000000   
    109. D(H  23,N  21,C  15,H  18)    165.1647         0.000000   
    110. D(H  23,N  21,C  15,H  17)     44.6891         0.000000   
    111. D(H  23,N  21,C  15,C  14)    -76.7913         0.000000   
    112. D(H  22,N  21,C  15,H  18)     38.3379         0.000000   
    113. D(H  22,N  21,C  15,H  17)    -82.1377         0.000000   
    114. D(H  22,N  21,C  15,C  14)    156.3819         0.000000   
    -----------------------------------------------------------------

Number of atoms                         .... 25
Number of degrees of freedom            .... 114

         *************************************************************
         *                GEOMETRY OPTIMIZATION CYCLE   1            *
         *************************************************************
---------------------------------
CARTESIAN COORDINATES (ANGSTROEM)
---------------------------------
  N     -0.062596    1.069860   -2.545680
  H     -0.103875    0.071484   -2.353411
  C      0.643193    1.480458   -3.731724
  C      1.955515    0.727392   -3.880713
  H      0.056750    1.336083   -4.659401
  H      0.841269    2.565181   -3.645014
  O      2.346115   -0.148313   -3.106380
  C     -0.295692    1.951980   -1.510093
  C     -0.705011    1.276222   -0.179308
  O     -0.198879    3.160407   -1.619022
  N      0.000000    0.000000    0.000000
  H     -1.788562    1.081232   -0.158903
  H     -0.451321    1.983829    0.624079
  H     -0.521117   -0.874120    0.062019
  C      1.348329    0.000000    0.000000
  C      2.096697   -1.346866   -0.098004
  O      2.032422    1.028217    0.000000
  H      1.582189   -2.100042   -0.712283
  H      2.307944   -1.761092    0.901280
  O      2.622601    1.094725   -4.968783
  H      3.447246    0.567361   -5.041426
  N      3.385310   -0.952532   -0.748101
  H      4.171656   -1.591622   -0.573687
  H      3.219596   -0.799873   -1.778234
  H      3.555548    0.017379   -0.367481

----------------------------
CARTESIAN COORDINATES (A.U.)
----------------------------
  NO LB      ZA    FRAG     MASS         X           Y           Z
   0 N     7.0000    0    14.007   -0.118289    2.021742   -4.810638
   1 H     1.0000    0     1.008   -0.196295    0.135085   -4.447302
   2 C     6.0000    0    12.011    1.215459    2.797660   -7.051936
   3 C     6.0000    0    12.011    3.695388    1.374572   -7.333485
   4 H     1.0000    0     1.008    0.107242    2.524831   -8.804992
   5 H     1.0000    0     1.008    1.589768    4.847490   -6.888078
   6 O     8.0000    0    15.999    4.433515   -0.280271   -5.870207
   7 C     6.0000    0    12.011   -0.558777    3.688708   -2.853662
   8 C     6.0000    0    12.011   -1.332278    2.411710   -0.338843
   9 O     8.0000    0    15.999   -0.375827    5.972304   -3.059508
  10 N     7.0000    0    14.007    0.000000    0.000000    0.000000
  11 H     1.0000    0     1.008   -3.379892    2.043232   -0.300283
  12 H     1.0000    0     1.008   -0.852873    3.748894    1.179338
  13 H     1.0000    0     1.008   -0.984768   -1.651847    0.117199
  14 C     6.0000    0    12.011    2.547973    0.000000    0.000000
  15 C     6.0000    0    12.011    3.962183   -2.545208   -0.185201
  16 O     8.0000    0    15.999    3.840721    1.943049    0.000000
  17 H     1.0000    0     1.008    2.989904   -3.968504   -1.346020
  18 H     1.0000    0     1.008    4.361382   -3.327982    1.703172
  19 O     8.0000    0    15.999    4.955998    2.068730   -9.389639
  20 H     1.0000    0     1.008    6.514351    1.072157   -9.526914
  21 N     7.0000    0    14.007    6.397309   -1.800025   -1.413706
  22 H     1.0000    0     1.008    7.883287   -3.007730   -1.084111
  23 H     1.0000    0     1.008    6.084155   -1.511541   -3.360375
  24 H     1.0000    0     1.008    6.719012    0.032842   -0.694438

--------------------------------
INTERNAL COORDINATES (ANGSTROEM)
--------------------------------
 N      0   0   0     0.000000000000     0.00000000     0.00000000
 H      1   0   0     1.017558824628     0.00000000     0.00000000
 C      1   2   0     1.439940693244   117.08372438     0.00000000
 C      3   1   2     1.520360205399   111.25738141   316.06347379
 H      3   1   2     1.106952640903   113.16709217    77.99703346
 H      3   1   2     1.106063611464   107.62901927   195.72219149
 O      4   3   1     1.232484970259   124.32748841     1.91396720
 C      1   2   3     1.380184724660   118.58467554   199.62710370
 C      8   1   2     1.547636790255   114.25438429   355.52200588
 O      8   1   2     1.217182853288   123.63859768   175.88399744
 N      9   8   1     1.468990967388   110.93863757    35.69724057
 H      9   8   1     1.101144964901   110.70203566   275.26772902
 H      9   8   1     1.100225865138   106.62346581   156.71751852
 H     11   9   8     1.019556304698   120.46220657   241.78039980
 C     11   9   8     1.348329000000   118.68074872    57.85233190
 C     15  11   9     1.543925992202   118.99396768   192.15941593
 O     15  11   9     1.234995316484   123.63660411     7.99765321
 H     16  15  11     1.099695984753   113.96343979    33.72960892
 H     16  15  11     1.102169218741   111.29749537   268.90242203
 O      4   3   1     1.328093968507   112.13832233   180.11730158
 H     20   4   3     0.981544278151   109.51336592   181.69833542
 N     16  15  11     1.496211508021   102.42302502   152.39813469
 H     22  16  15     1.028200517026   114.90701971   156.38192161
 H     22  16  15     1.054485608136   109.10311872   283.20874447
 H     22  16  15     1.055736666487   102.96523212    33.40870519

---------------------------
INTERNAL COORDINATES (A.U.)
---------------------------
 N      0   0   0     0.000000000000     0.00000000     0.00000000
 H      1   0   0     1.922907503701     0.00000000     0.00000000
 C      1   2   0     2.721093559321   117.08372438     0.00000000
 C      3   1   2     2.873064413116   111.25738141   316.06347379
 H      3   1   2     2.091837334528   113.16709217    77.99703346
 H      3   1   2     2.090157312363   107.62901927   195.72219149
 O      4   3   1     2.329059057963   124.32748841     1.91396720
 C      1   2   3     2.608171143829   118.58467554   199.62710370
 C      8   1   2     2.924609688362   114.25438429   355.52200588
 O      8   1   2     2.300142247620   123.63859768   175.88399744
 N      9   8   1     2.775990621568   110.93863757    35.69724057
 H      9   8   1     2.080862417409   110.70203566   275.26772902
 H      9   8   1     2.079125570567   106.62346581   156.71751852
 H     11   9   8     1.926682193993   120.46220657   241.78039980
 C     11   9   8     2.547972548424   118.68074872    57.85233190
 C     15  11   9     2.917597296304   118.99396768   192.15941593
 O     15  11   9     2.333802924831   123.63660411     7.99765321
 H     16  15  11     2.078124241755   113.96343979    33.72960892
 H     16  15  11     2.082797976659   111.29749537   268.90242203
 O      4   3   1     2.509733880591   112.13832233   180.11730158
 H     20   4   3     1.854849874022   109.51336592   181.69833542
 N     16  15  11     2.827429988581   102.42302502   152.39813469
 H     22  16  15     1.943017387935   114.90701971   156.38192161
 H     22  16  15     1.992689011538   109.10311872   283.20874447
 H     22  16  15     1.995053169199   102.96523212    33.40870519

---------------------
BASIS SET INFORMATION
---------------------
There are 4 groups of distinct atoms

 Group   1 Type N   : 11s6p2d1f contracted to 5s3p2d1f pattern {62111/411/11/1}
 Group   2 Type H   : 5s2p1d contracted to 3s2p1d pattern {311/11/1}
 Group   3 Type C   : 11s6p2d1f contracted to 5s3p2d1f pattern {62111/411/11/1}
 Group   4 Type O   : 11s6p2d1f contracted to 5s3p2d1f pattern {62111/411/11/1}

Atom   0N    basis set group =>   1
Atom   1H    basis set group =>   2
Atom   2C    basis set group =>   3
Atom   3C    basis set group =>   3
Atom   4H    basis set group =>   2
Atom   5H    basis set group =>   2
Atom   6O    basis set group =>   4
Atom   7C    basis set group =>   3
Atom   8C    basis set group =>   3
Atom   9O    basis set group =>   4
Atom  10N    basis set group =>   1
Atom  11H    basis set group =>   2
Atom  12H    basis set group =>   2
Atom  13H    basis set group =>   2
Atom  14C    basis set group =>   3
Atom  15C    basis set group =>   3
Atom  16O    basis set group =>   4
Atom  17H    basis set group =>   2
Atom  18H    basis set group =>   2
Atom  19O    basis set group =>   4
Atom  20H    basis set group =>   2
Atom  21N    basis set group =>   1
Atom  22H    basis set group =>   2
Atom  23H    basis set group =>   2
Atom  24H    basis set group =>   2
---------------------------------
AUXILIARY/J BASIS SET INFORMATION
---------------------------------
There are 4 groups of distinct atoms

 Group   1 Type N   : 12s5p4d2f1g contracted to 6s4p3d1f1g pattern {711111/2111/211/2/1}
 Group   2 Type H   : 5s2p1d contracted to 3s1p1d pattern {311/2/1}
 Group   3 Type C   : 12s5p4d2f1g contracted to 6s4p3d1f1g pattern {711111/2111/211/2/1}
 Group   4 Type O   : 12s5p4d2f1g contracted to 6s4p3d1f1g pattern {711111/2111/211/2/1}

Atom   0N    basis set group =>   1
Atom   1H    basis set group =>   2
Atom   2C    basis set group =>   3
Atom   3C    basis set group =>   3
Atom   4H    basis set group =>   2
Atom   5H    basis set group =>   2
Atom   6O    basis set group =>   4
Atom   7C    basis set group =>   3
Atom   8C    basis set group =>   3
Atom   9O    basis set group =>   4
Atom  10N    basis set group =>   1
Atom  11H    basis set group =>   2
Atom  12H    basis set group =>   2
Atom  13H    basis set group =>   2
Atom  14C    basis set group =>   3
Atom  15C    basis set group =>   3
Atom  16O    basis set group =>   4
Atom  17H    basis set group =>   2
Atom  18H    basis set group =>   2
Atom  19O    basis set group =>   4
Atom  20H    basis set group =>   2
Atom  21N    basis set group =>   1
Atom  22H    basis set group =>   2
Atom  23H    basis set group =>   2
Atom  24H    basis set group =>   2


           ************************************************************
           *        Program running with 8 parallel MPI-processes     *
           *              working on a common directory               *
           ************************************************************
------------------------------------------------------------------------------
                           ORCA GTO INTEGRAL CALCULATION
                           -- RI-GTO INTEGRALS CHOSEN --
------------------------------------------------------------------------------
------------------------------------------------------------------------------
                   ___                                                        
                  /   \      - P O W E R E D   B Y -                         
                 /     \                                                     
                 |  |  |   _    _      __       _____    __    __             
                 |  |  |  | |  | |    /  \     |  _  \  |  |  /  |          
                  \  \/   | |  | |   /    \    | | | |  |  | /  /          
                 / \  \   | |__| |  /  /\  \   | |_| |  |  |/  /          
                |  |  |   |  __  | /  /__\  \  |    /   |      \           
                |  |  |   | |  | | |   __   |  |    \   |  |\   \          
                \     /   | |  | | |  |  |  |  | |\  \  |  | \   \       
                 \___/    |_|  |_| |__|  |__|  |_| \__\ |__|  \__/        
                                                                              
                      - O R C A' S   B I G   F R I E N D -                    
                                      &                                       
                       - I N T E G R A L  F E E D E R -                       
                                                                              
 v1 FN, 2020, v2 2021                                                         
------------------------------------------------------------------------------


Reading SHARK input file GGG-H_tt_000_OptFreq.SHARKINP.tmp ... ok
----------------------
SHARK INTEGRAL PACKAGE
----------------------

Number of atoms                             ...     25
Number of basis functions                   ...    571
Number of shells                            ...    215
Maximum angular momentum                    ...      3
Integral batch strategy                     ... SHARK/LIBINT Hybrid
RI-J (if used) integral strategy            ... SPLIT-RIJ (Revised 2003 algorithm where possible)
Printlevel                                  ...      1
Contraction scheme used                     ... SEGMENTED contraction
Coulomb Range Separation                    ... NOT USED
Exchange Range Separation                   ... Long Range
   Mu parameter                             ...  0.300000
   Scaling (regular/separated)              ...  0.167000  0.833000
Finite Nucleus Model                        ... NOT USED
Auxiliary Coulomb fitting basis             ... AVAILABLE
   # of basis functions in Aux-J            ...    769
   # of shells in Aux-J                     ...    255
   Maximum angular momentum in Aux-J        ...      4
Auxiliary J/K fitting basis                 ... NOT available
Auxiliary Correlation fitting basis         ... NOT available
Auxiliary 'external' fitting basis          ... NOT available
Integral threshold                          ...     1.000000e-12
Primitive cut-off                           ...     1.000000e-14
Primitive pair pre-selection threshold      ...     1.000000e-14

Calculating pre-screening integrals         ... done (  0.0 sec) Dimension = 215
Organizing shell pair data                  ... done (  0.2 sec)
Shell pair information
Total number of shell pairs                 ...     23220
Shell pairs after pre-screening             ...     19848
Total number of primitive shell pairs       ...     63868
Primitive shell pairs kept                  ...     39859
          la=0 lb=0:   4316 shell pairs
          la=1 lb=0:   5563 shell pairs
          la=1 lb=1:   1837 shell pairs
          la=2 lb=0:   3140 shell pairs
          la=2 lb=1:   2079 shell pairs
          la=2 lb=2:    598 shell pairs
          la=3 lb=0:   1084 shell pairs
          la=3 lb=1:    734 shell pairs
          la=3 lb=2:    416 shell pairs
          la=3 lb=3:     81 shell pairs

Calculating one electron integrals          ... done (  0.0 sec)
Calculating RI/J V-Matrix + Cholesky decomp.... done (  0.2 sec)
Calculating Nuclear repulsion               ... done (  0.0 sec) ENN=    884.147026454430 Eh

SHARK setup successfully completed in   1.6 seconds

Maximum memory used throughout the entire GTOINT-calculation: 31.6 MB


           ************************************************************
           *        Program running with 8 parallel MPI-processes     *
           *              working on a common directory               *
           ************************************************************
-------------------------------------------------------------------------------
                                 ORCA SCF
-------------------------------------------------------------------------------

------------
SCF SETTINGS
------------
Hamiltonian:
 Density Functional     Method          .... DFT(GTOs)
 Exchange Functional    Exchange        .... WB97X-V
 Correlation Functional Correlation     .... WB97X-V
 Gradients option       PostSCFGGA      .... off
 Hybrid DFT is turned on
   Fraction HF Exchange ScalHFX         ....  0.167000
   Scaling of DF-GGA-X  ScalDFX         ....  0.000000
   Scaling of DF-GGA-C  ScalDFC         ....  1.000000
   Scaling of DF-LDA-C  ScalLDAC        ....  1.000000
   Perturbative correction              ....  0.000000
   Density functional embedding theory  .... OFF
 Long-range corrected/Screened/Range-Separated Hybrid DFT is turned on
   Amount of maximum screened exact exchange              ....  0.833000
   Range separation parameter mu (erf(mu*r12)/r12)        ....  0.300000
 RI-approximation to the Coulomb term is turned on
   Number of AuxJ basis functions       .... 769
   RIJ-COSX (HFX calculated with COS-X)).... on


General Settings:
 Integral files         IntName         .... GGG-H_tt_000_OptFreq
 Hartree-Fock type      HFTyp           .... RHF
 Total Charge           Charge          ....    1
 Multiplicity           Mult            ....    1
 Number of Electrons    NEL             ....  100
 Basis Dimension        Dim             ....  571
 Nuclear Repulsion      ENuc            ....    884.1470264544 Eh

Convergence Acceleration:
 DIIS                   CNVDIIS         .... on
   Start iteration      DIISMaxIt       ....    12
   Startup error        DIISStart       ....  0.200000
   # of expansion vecs  DIISMaxEq       ....     5
   Bias factor          DIISBfac        ....   1.050
   Max. coefficient     DIISMaxC        ....  10.000
 Trust-Rad. Augm. Hess. CNVTRAH         .... auto
   Auto Start mean grad. ratio tolernc. ....  1.125000
   Auto Start start iteration           ....    20
   Auto Start num. interpolation iter.  ....    10
   Max. Number of Micro iterations      ....    16
   Max. Number of Macro iterations      .... Maxiter - #DIIS iter
   Number of Davidson start vectors     ....     2
   Converg. threshold I  (grad. norm)   ....   2.000e-06
   Converg. threshold II (energy diff.) ....   1.000e-09
   Grad. Scal. Fac. for Micro threshold ....   0.100
   Minimum threshold for Micro iter.    ....   0.010
   NR start threshold (gradient norm)   ....   0.001
   Initial trust radius                 ....   0.400
   Minimum AH scaling param. (alpha)    ....   1.000
   Maximum AH scaling param. (alpha)    .... 1000.000
   Orbital update algorithm             .... Taylor
   White noise on init. David. guess    .... on
   Maximum white noise                  ....   0.010
   Quad. conv. algorithm                .... NR
 SOSCF                  CNVSOSCF        .... on
   Start iteration      SOSCFMaxIt      ....   150
   Startup grad/error   SOSCFStart      ....  0.003300
 Level Shifting         CNVShift        .... on
   Level shift para.    LevelShift      ....    0.2500
   Turn off err/grad.   ShiftErr        ....    0.0010
 Zerner damping         CNVZerner       .... off
 Static damping         CNVDamp         .... on
   Fraction old density DampFac         ....    0.7000
   Max. Damping (<1)    DampMax         ....    0.9800
   Min. Damping (>=0)   DampMin         ....    0.0000
   Turn off err/grad.   DampErr         ....    0.1000
 Fernandez-Rico         CNVRico         .... off

SCF Procedure:
 Maximum # iterations   MaxIter         ....   125
 SCF integral mode      SCFMode         .... Direct
   Integral package                     .... SHARK and LIBINT hybrid scheme
 Reset frequency        DirectResetFreq ....    20
 Integral Threshold     Thresh          ....  1.000e-12 Eh
 Primitive CutOff       TCut            ....  1.000e-14 Eh

Convergence Tolerance:
 Convergence Check Mode ConvCheckMode   .... Total+1el-Energy
 Convergence forced     ConvForced      .... 0
 Energy Change          TolE            ....  1.000e-09 Eh
 1-El. energy change                    ....  1.000e-06 Eh
 Orbital Gradient       TolG            ....  2.000e-06
 Orbital Rotation angle TolX            ....  2.000e-06
 DIIS Error             TolErr          ....  1.000e-08


Diagonalization of the overlap matrix:
Smallest eigenvalue                        ... 1.431e-04
Time for diagonalization                   ...    0.058 sec
Threshold for overlap eigenvalues          ... 1.000e-08
Number of eigenvalues below threshold      ... 0
Time for construction of square roots      ...    0.229 sec
Total time needed                          ...    0.349 sec

Time for model grid setup =    0.372 sec

------------------------------
INITIAL GUESS: MODEL POTENTIAL
------------------------------
Loading Hartree-Fock densities                     ... done
Calculating cut-offs                               ... done
Initializing the effective Hamiltonian             ... done
Setting up the integral package (SHARK)            ... done
Starting the Coulomb interaction                   ... done (   0.6 sec)
Reading the grid                                   ... done
Mapping shells                                     ... done
Starting the XC term evaluation                    ... done (   0.2 sec)
  promolecular density results
     # of electrons  =    100.988163516
     EX              =    -58.975327482
     EC              =     -4.269767964
     EX+EC           =    -63.245095446
Transforming the Hamiltonian                       ... done (   0.0 sec)
Diagonalizing the Hamiltonian                      ... done (   0.0 sec)
Back transforming the eigenvectors                 ... done (   0.0 sec)
Now organizing SCF variables                       ... done
                      ------------------
                      INITIAL GUESS DONE (   1.2 sec)
                      ------------------
-------------------
DFT GRID GENERATION
-------------------

General Integration Accuracy     IntAcc      ... 4.959
Radial Grid Type                 RadialGrid  ... OptM3 with GC (2021)
Angular Grid (max. ang.)         AngularGrid ... 6 (Lebedev-590)
Angular grid pruning method      GridPruning ... 4 (adaptive)
Weight generation scheme         WeightScheme... Becke
Basis function cutoff            BFCut       ... 1.0000e-12
Integration weight cutoff        WCut        ... 1.0000e-14
Angular grids for H and He will be reduced by one unit
Partially contracted basis set               ... off
Rotationally invariant grid construction     ... off

Total number of grid points                  ...   288705
Total number of batches                      ...     4523
Average number of points per batch           ...       63
Average number of grid points per atom       ...    11548
Time for grid setup =    3.282 sec

--------------------
COSX GRID GENERATION
--------------------

GRIDX 1
-------
General Integration Accuracy     IntAcc      ... 4.020
Radial Grid Type                 RadialGrid  ... OptM3 with GC (2021)
Angular Grid (max. ang.)         AngularGrid ... 2 (Lebedev-110)
Angular grid pruning method      GridPruning ... 4 (adaptive)
Weight generation scheme         WeightScheme... Becke
Basis function cutoff            BFCut       ... 1.0000e-12
Integration weight cutoff        WCut        ... 1.0000e-14
Angular grids for H and He will be reduced by one unit
Partially contracted basis set               ... on
Rotationally invariant grid construction     ... off

Total number of grid points                  ...    32145
Total number of batches                      ...      514
Average number of points per batch           ...       62
Average number of grid points per atom       ...     1286
UseSFitting                                  ... on

GRIDX 2
-------
General Integration Accuracy     IntAcc      ... 4.338
Radial Grid Type                 RadialGrid  ... OptM3 with GC (2021)
Angular Grid (max. ang.)         AngularGrid ... 3 (Lebedev-194)
Angular grid pruning method      GridPruning ... 4 (adaptive)
Weight generation scheme         WeightScheme... Becke
Basis function cutoff            BFCut       ... 1.0000e-12
Integration weight cutoff        WCut        ... 1.0000e-14
Angular grids for H and He will be reduced by one unit
Partially contracted basis set               ... on
Rotationally invariant grid construction     ... off

Total number of grid points                  ...    70358
Total number of batches                      ...     1111
Average number of points per batch           ...       63
Average number of grid points per atom       ...     2814
UseSFitting                                  ... on

GRIDX 3
-------
General Integration Accuracy     IntAcc      ... 4.871
Radial Grid Type                 RadialGrid  ... OptM3 with GC (2021)
Angular Grid (max. ang.)         AngularGrid ... 4 (Lebedev-302)
Angular grid pruning method      GridPruning ... 4 (adaptive)
Weight generation scheme         WeightScheme... Becke
Basis function cutoff            BFCut       ... 1.0000e-12
Integration weight cutoff        WCut        ... 1.0000e-14
Angular grids for H and He will be reduced by one unit
Partially contracted basis set               ... on
Rotationally invariant grid construction     ... off

Total number of grid points                  ...   133262
Total number of batches                      ...     2096
Average number of points per batch           ...       63
Average number of grid points per atom       ...     5330
UseSFitting                                  ... on

Time for X-Grid setup             =    2.310 sec

--------------
SCF ITERATIONS
--------------
ITER       Energy         Delta-E        Max-DP      RMS-DP      [F,P]     Damp
               ***  Starting incremental Fock matrix formation  ***
  0   -701.1620423161   0.000000000000 0.05634254  0.00045171  0.3426005 0.7000
  1   -701.2096839199  -0.047641603761 0.05012513  0.00041244  0.2343741 0.7000
                               ***Turning on DIIS***
  2   -701.2379155256  -0.028231605705 0.03897387  0.00032442  0.1629712 0.7000
  3   -701.2564964654  -0.018580939830 0.03050701  0.00026374  0.1124676 0.7000
  4   -701.2695087729  -0.013012307460 0.07733572  0.00069996  0.0774853 0.0000
                      *** Initiating the SOSCF procedure ***
                           *** Shutting down DIIS ***
                      *** Re-Reading the Fockian *** 
                      *** Removing any level shift *** 
ITER      Energy       Delta-E        Grad      Rot      Max-DP    RMS-DP
  5   -701.30081754  -0.0313087639  0.001594  0.001594  0.007460  0.000075
               *** Restarting incremental Fock matrix formation ***
  6   -701.30095474  -0.0001371990  0.000897  0.001900  0.005249  0.000047
  7   -701.30099414  -0.0000394060  0.000535  0.002111  0.003774  0.000034
  8   -701.30100184  -0.0000076943  0.000236  0.000456  0.000826  0.000009
  9   -701.30100448  -0.0000026405  0.000093  0.000099  0.000574  0.000005
 10   -701.30100469  -0.0000002163  0.000025  0.000056  0.000232  0.000002
 11   -701.30100484  -0.0000001434  0.000007  0.000023  0.000021  0.000000
 12   -701.30100484  -0.0000000031  0.000007  0.000005  0.000019  0.000000
 13   -701.30100484  -0.0000000027  0.000002  0.000004  0.000005  0.000000
 14   -701.30100484  -0.0000000001  0.000002  0.000002  0.000002  0.000000
                  ***Gradient check signals convergence***
              ***Rediagonalizing the Fockian in SOSCF/NRSCF***

               *****************************************************
               *                     SUCCESS                       *
               *           SCF CONVERGED AFTER  15 CYCLES          *
               *****************************************************

Old exchange energy                            =    -27.832458406 Eh
New exchange energy                            =    -27.832457905 Eh
Exchange energy change after final integration =      0.000000501 Eh
Total energy after final integration           =   -701.301004341 Eh
Final COS-X integration done in                =    32.466 sec

----------------
TOTAL SCF ENERGY
----------------

Total Energy       :         -701.30100434 Eh          -19083.37051 eV

Components:
Nuclear Repulsion  :          884.14702645 Eh           24058.86372 eV
Electronic Energy  :        -1585.44803080 Eh          -43142.23423 eV
One Electron Energy:        -2696.67201655 Eh          -73380.17615 eV
Two Electron Energy:         1111.22398576 Eh           30237.94192 eV
Max COSX asymmetry :            0.00000073 Eh               0.00002 eV

Virial components:
Potential Energy   :        -1399.27358435 Eh          -38076.16999 eV
Kinetic Energy     :          697.97258000 Eh           18992.79948 eV
Virial Ratio       :            2.00476870


DFT components:
N(Alpha)           :       50.000003646669 electrons
N(Beta)            :       50.000003646669 electrons
N(Total)           :      100.000007293338 electrons
E(X)               :      -60.050482153059 Eh       
E(C)               :       -4.267292172344 Eh       
E(XC)              :      -64.317774325404 Eh       
DFET-embed. en.    :        0.000000000000 Eh       

---------------
SCF CONVERGENCE
---------------

  Last Energy change         ...   -2.7489e-10  Tolerance :   1.0000e-09
  Last MAX-Density change    ...    2.6645e-15  Tolerance :   1.0000e-08
  Last RMS-Density change    ...    1.6184e-17  Tolerance :   1.0000e-09
  Last Orbital Gradient      ...    2.7651e-07  Tolerance :   2.0000e-06
  Last Orbital Rotation      ...    7.1435e-07  Tolerance :   2.0000e-06

             **** THE GBW FILE WAS UPDATED (GGG-H_tt_000_OptFreq.gbw) ****
             **** DENSITY GGG-H_tt_000_OptFreq.scfp WAS UPDATED ****
             **** ENERGY FILE WAS UPDATED (GGG-H_tt_000_OptFreq.en.tmp) ****
             **** THE GBW FILE WAS UPDATED (GGG-H_tt_000_OptFreq.gbw) ****
             **** DENSITY GGG-H_tt_000_OptFreq.scfp WAS UPDATED ****
----------------
ORBITAL ENERGIES
----------------

  NO   OCC          E(Eh)            E(eV) 
   0   2.0000     -19.417999      -528.3906 
   1   2.0000     -19.371262      -527.1188 
   2   2.0000     -19.358333      -526.7670 
   3   2.0000     -19.304859      -525.3119 
   4   2.0000     -14.689893      -399.7323 
   5   2.0000     -14.612374      -397.6229 
   6   2.0000     -14.568424      -396.4270 
   7   2.0000     -10.574302      -287.7414 
   8   2.0000     -10.557295      -287.2786 
   9   2.0000     -10.519452      -286.2488 
  10   2.0000     -10.506717      -285.9023 
  11   2.0000     -10.459992      -284.6309 
  12   2.0000     -10.458811      -284.5987 
  13   2.0000      -1.399991       -38.0957 
  14   2.0000      -1.355708       -36.8907 
  15   2.0000      -1.308733       -35.6124 
  16   2.0000      -1.297366       -35.3031 
  17   2.0000      -1.285259       -34.9737 
  18   2.0000      -1.227592       -33.4045 
  19   2.0000      -1.188514       -32.3411 
  20   2.0000      -1.058174       -28.7944 
  21   2.0000      -1.023223       -27.8433 
  22   2.0000      -0.985040       -26.8043 
  23   2.0000      -0.895910       -24.3789 
  24   2.0000      -0.885939       -24.1076 
  25   2.0000      -0.880340       -23.9553 
  26   2.0000      -0.861955       -23.4550 
  27   2.0000      -0.836307       -22.7571 
  28   2.0000      -0.804057       -21.8795 
  29   2.0000      -0.787013       -21.4157 
  30   2.0000      -0.775114       -21.0919 
  31   2.0000      -0.764946       -20.8152 
  32   2.0000      -0.753374       -20.5003 
  33   2.0000      -0.734675       -19.9915 
  34   2.0000      -0.732624       -19.9357 
  35   2.0000      -0.720603       -19.6086 
  36   2.0000      -0.698996       -19.0206 
  37   2.0000      -0.685427       -18.6514 
  38   2.0000      -0.674761       -18.3612 
  39   2.0000      -0.669236       -18.2108 
  40   2.0000      -0.654645       -17.8138 
  41   2.0000      -0.639793       -17.4096 
  42   2.0000      -0.630945       -17.1689 
  43   2.0000      -0.605343       -16.4722 
  44   2.0000      -0.592325       -16.1180 
  45   2.0000      -0.560282       -15.2460 
  46   2.0000      -0.550941       -14.9919 
  47   2.0000      -0.542226       -14.7547 
  48   2.0000      -0.494452       -13.4547 
  49   2.0000      -0.487172       -13.2566 
  50   0.0000      -0.081695        -2.2230 
  51   0.0000      -0.064274        -1.7490 
  52   0.0000      -0.063447        -1.7265 
  53   0.0000      -0.045173        -1.2292 
  54   0.0000      -0.022205        -0.6042 
  55   0.0000      -0.019313        -0.5255 
  56   0.0000      -0.000982        -0.0267 
  57   0.0000       0.009243         0.2515 
  58   0.0000       0.013687         0.3724 
  59   0.0000       0.024969         0.6794 
  60   0.0000       0.036639         0.9970 
  61   0.0000       0.042427         1.1545 
  62   0.0000       0.058596         1.5945 
  63   0.0000       0.068079         1.8525 
  64   0.0000       0.076874         2.0919 
  65   0.0000       0.082596         2.2476 
  66   0.0000       0.089583         2.4377 
  67   0.0000       0.103909         2.8275 
  68   0.0000       0.115087         3.1317 
  69   0.0000       0.119823         3.2606 
  70   0.0000       0.122894         3.3441 
  71   0.0000       0.134055         3.6478 
  72   0.0000       0.137160         3.7323 
  73   0.0000       0.148912         4.0521 
  74   0.0000       0.161200         4.3865 
  75   0.0000       0.175412         4.7732 
  76   0.0000       0.185694         5.0530 
  77   0.0000       0.192341         5.2339 
  78   0.0000       0.196276         5.3409 
  79   0.0000       0.208562         5.6753 
  80   0.0000       0.218494         5.9455 
  81   0.0000       0.222026         6.0416 
  82   0.0000       0.235935         6.4201 
  83   0.0000       0.241095         6.5605 
  84   0.0000       0.259896         7.0721 
  85   0.0000       0.266406         7.2493 
  86   0.0000       0.279557         7.6071 
  87   0.0000       0.282741         7.6938 
  88   0.0000       0.291990         7.9455 
  89   0.0000       0.298620         8.1259 
  90   0.0000       0.303607         8.2616 
  91   0.0000       0.319639         8.6978 
  92   0.0000       0.325500         8.8573 
  93   0.0000       0.327755         8.9187 
  94   0.0000       0.333092         9.0639 
  95   0.0000       0.336725         9.1627 
  96   0.0000       0.345192         9.3932 
  97   0.0000       0.350111         9.5270 
  98   0.0000       0.352429         9.5901 
  99   0.0000       0.353718         9.6252 
 100   0.0000       0.362072         9.8525 
 101   0.0000       0.366286         9.9672 
 102   0.0000       0.375009        10.2045 
 103   0.0000       0.385347        10.4858 
 104   0.0000       0.393002        10.6941 
 105   0.0000       0.401042        10.9129 
 106   0.0000       0.403379        10.9765 
 107   0.0000       0.419323        11.4103 
 108   0.0000       0.423056        11.5119 
 109   0.0000       0.426773        11.6131 
 110   0.0000       0.436606        11.8807 
 111   0.0000       0.449401        12.2288 
 112   0.0000       0.456070        12.4103 
 113   0.0000       0.465286        12.6611 
 114   0.0000       0.468593        12.7511 
 115   0.0000       0.488163        13.2836 
 116   0.0000       0.495902        13.4942 
 117   0.0000       0.503092        13.6898 
 118   0.0000       0.508589        13.8394 
 119   0.0000       0.514319        13.9953 
 120   0.0000       0.529211        14.4006 
 121   0.0000       0.538670        14.6580 
 122   0.0000       0.545618        14.8470 
 123   0.0000       0.561472        15.2784 
 124   0.0000       0.573043        15.5933 
 125   0.0000       0.577150        15.7051 
 126   0.0000       0.584237        15.8979 
 127   0.0000       0.604702        16.4548 
 128   0.0000       0.605804        16.4848 
 129   0.0000       0.618507        16.8304 
 130   0.0000       0.635132        17.2828 
 131   0.0000       0.656753        17.8711 
 132   0.0000       0.669547        18.2193 
 133   0.0000       0.673910        18.3380 
 134   0.0000       0.684418        18.6239 
 135   0.0000       0.703254        19.1365 
 136   0.0000       0.715199        19.4616 
 137   0.0000       0.719538        19.5796 
 138   0.0000       0.726659        19.7734 
 139   0.0000       0.737818        20.0771 
 140   0.0000       0.752255        20.4699 
 141   0.0000       0.759288        20.6613 
 142   0.0000       0.767212        20.8769 
 143   0.0000       0.780579        21.2406 
 144   0.0000       0.784818        21.3560 
 145   0.0000       0.805332        21.9142 
 146   0.0000       0.809642        22.0315 
 147   0.0000       0.817157        22.2360 
 148   0.0000       0.821488        22.3538 
 149   0.0000       0.837258        22.7829 
 150   0.0000       0.871757        23.7217 
 151   0.0000       0.878710        23.9109 
 152   0.0000       0.888317        24.1723 
 153   0.0000       0.890962        24.2443 
 154   0.0000       0.893885        24.3239 
 155   0.0000       0.906490        24.6668 
 156   0.0000       0.927552        25.2400 
 157   0.0000       0.936264        25.4770 
 158   0.0000       0.944913        25.7124 
 159   0.0000       0.958001        26.0685 
 160   0.0000       0.961775        26.1712 
 161   0.0000       0.969798        26.3896 
 162   0.0000       0.976853        26.5815 
 163   0.0000       0.993777        27.0420 
 164   0.0000       1.001682        27.2571 
 165   0.0000       1.016324        27.6556 
 166   0.0000       1.022230        27.8163 
 167   0.0000       1.027485        27.9593 
 168   0.0000       1.040699        28.3189 
 169   0.0000       1.042734        28.3742 
 170   0.0000       1.046580        28.4789 
 171   0.0000       1.072194        29.1759 
 172   0.0000       1.079000        29.3611 
 173   0.0000       1.085764        29.5451 
 174   0.0000       1.111218        30.2378 
 175   0.0000       1.115080        30.3429 
 176   0.0000       1.133747        30.8508 
 177   0.0000       1.142297        31.0835 
 178   0.0000       1.145987        31.1839 
 179   0.0000       1.152336        31.3567 
 180   0.0000       1.163287        31.6547 
 181   0.0000       1.169483        31.8232 
 182   0.0000       1.183376        32.2013 
 183   0.0000       1.196812        32.5669 
 184   0.0000       1.212198        32.9856 
 185   0.0000       1.216525        33.1033 
 186   0.0000       1.226176        33.3659 
 187   0.0000       1.237540        33.6752 
 188   0.0000       1.255987        34.1771 
 189   0.0000       1.267603        34.4932 
 190   0.0000       1.276626        34.7387 
 191   0.0000       1.288455        35.0606 
 192   0.0000       1.299006        35.3477 
 193   0.0000       1.310477        35.6599 
 194   0.0000       1.312260        35.7084 
 195   0.0000       1.320371        35.9291 
 196   0.0000       1.356077        36.9007 
 197   0.0000       1.363198        37.0945 
 198   0.0000       1.377980        37.4967 
 199   0.0000       1.384067        37.6624 
 200   0.0000       1.396062        37.9888 
 201   0.0000       1.400196        38.1013 
 202   0.0000       1.409956        38.3669 
 203   0.0000       1.416812        38.5534 
 204   0.0000       1.426070        38.8053 
 205   0.0000       1.436060        39.0772 
 206   0.0000       1.442016        39.2392 
 207   0.0000       1.452873        39.5347 
 208   0.0000       1.464910        39.8622 
 209   0.0000       1.470529        40.0151 
 210   0.0000       1.487279        40.4709 
 211   0.0000       1.502685        40.8901 
 212   0.0000       1.523273        41.4504 
 213   0.0000       1.525635        41.5146 
 214   0.0000       1.527577        41.5675 
 215   0.0000       1.551065        42.2066 
 216   0.0000       1.573495        42.8170 
 217   0.0000       1.575823        42.8803 
 218   0.0000       1.595692        43.4210 
 219   0.0000       1.619774        44.0763 
 220   0.0000       1.625076        44.2206 
 221   0.0000       1.638288        44.5801 
 222   0.0000       1.662196        45.2306 
 223   0.0000       1.681369        45.7524 
 224   0.0000       1.696526        46.1648 
 225   0.0000       1.703924        46.3661 
 226   0.0000       1.723434        46.8970 
 227   0.0000       1.731666        47.1210 
 228   0.0000       1.746400        47.5219 
 229   0.0000       1.767935        48.1080 
 230   0.0000       1.781573        48.4791 
 231   0.0000       1.798255        48.9330 
 232   0.0000       1.811066        49.2816 
 233   0.0000       1.828713        49.7618 
 234   0.0000       1.837533        50.0018 
 235   0.0000       1.855012        50.4774 
 236   0.0000       1.869271        50.8655 
 237   0.0000       1.884978        51.2929 
 238   0.0000       1.891550        51.4717 
 239   0.0000       1.923003        52.3276 
 240   0.0000       1.934245        52.6335 
 241   0.0000       1.951701        53.1085 
 242   0.0000       1.961362        53.3714 
 243   0.0000       1.975958        53.7686 
 244   0.0000       2.006407        54.5971 
 245   0.0000       2.013269        54.7838 
 246   0.0000       2.027356        55.1672 
 247   0.0000       2.060650        56.0731 
 248   0.0000       2.083122        56.6846 
 249   0.0000       2.100915        57.1688 
 250   0.0000       2.102591        57.2144 
 251   0.0000       2.112591        57.4865 
 252   0.0000       2.143220        58.3200 
 253   0.0000       2.185944        59.4826 
 254   0.0000       2.201012        59.8926 
 255   0.0000       2.230376        60.6916 
 256   0.0000       2.239047        60.9276 
 257   0.0000       2.253362        61.3171 
 258   0.0000       2.275820        61.9282 
 259   0.0000       2.284232        62.1571 
 260   0.0000       2.302186        62.6457 
 261   0.0000       2.333112        63.4872 
 262   0.0000       2.338295        63.6282 
 263   0.0000       2.361414        64.2573 
 264   0.0000       2.378416        64.7200 
 265   0.0000       2.388787        65.0022 
 266   0.0000       2.412253        65.6407 
 267   0.0000       2.420726        65.8713 
 268   0.0000       2.480446        67.4964 
 269   0.0000       2.491278        67.7911 
 270   0.0000       2.511365        68.3377 
 271   0.0000       2.514460        68.4219 
 272   0.0000       2.524896        68.7059 
 273   0.0000       2.536928        69.0333 
 274   0.0000       2.544307        69.2341 
 275   0.0000       2.562241        69.7221 
 276   0.0000       2.574244        70.0487 
 277   0.0000       2.577320        70.1324 
 278   0.0000       2.589412        70.4615 
 279   0.0000       2.608439        70.9792 
 280   0.0000       2.618298        71.2475 
 281   0.0000       2.628504        71.5252 
 282   0.0000       2.649304        72.0912 
 283   0.0000       2.665460        72.5308 
 284   0.0000       2.673249        72.7428 
 285   0.0000       2.682257        72.9879 
 286   0.0000       2.690083        73.2009 
 287   0.0000       2.710310        73.7513 
 288   0.0000       2.717953        73.9593 
 289   0.0000       2.741858        74.6098 
 290   0.0000       2.757123        75.0251 
 291   0.0000       2.780309        75.6560 
 292   0.0000       2.787197        75.8435 
 293   0.0000       2.794033        76.0295 
 294   0.0000       2.811812        76.5133 
 295   0.0000       2.819495        76.7224 
 296   0.0000       2.851908        77.6044 
 297   0.0000       2.856671        77.7340 
 298   0.0000       2.867787        78.0365 
 299   0.0000       2.889126        78.6171 
 300   0.0000       2.893301        78.7307 
 301   0.0000       2.896059        78.8058 
 302   0.0000       2.920517        79.4713 
 303   0.0000       2.926692        79.6393 
 304   0.0000       2.930990        79.7563 
 305   0.0000       2.940501        80.0151 
 306   0.0000       2.948953        80.2451 
 307   0.0000       2.958589        80.5073 
 308   0.0000       2.975882        80.9779 
 309   0.0000       2.986300        81.2614 
 310   0.0000       2.997665        81.5706 
 311   0.0000       3.016332        82.0786 
 312   0.0000       3.020696        82.1973 
 313   0.0000       3.035871        82.6103 
 314   0.0000       3.046828        82.9084 
 315   0.0000       3.053061        83.0780 
 316   0.0000       3.059537        83.2542 
 317   0.0000       3.062352        83.3308 
 318   0.0000       3.069956        83.5377 
 319   0.0000       3.081631        83.8554 
 320   0.0000       3.090522        84.0974 
 321   0.0000       3.099391        84.3387 
 322   0.0000       3.114107        84.7391 
 323   0.0000       3.117763        84.8386 
 324   0.0000       3.129588        85.1604 
 325   0.0000       3.141411        85.4821 
 326   0.0000       3.151957        85.7691 
 327   0.0000       3.167762        86.1992 
 328   0.0000       3.180952        86.5581 
 329   0.0000       3.185732        86.6882 
 330   0.0000       3.193819        86.9082 
 331   0.0000       3.209005        87.3215 
 332   0.0000       3.214523        87.4716 
 333   0.0000       3.219651        87.6111 
 334   0.0000       3.231183        87.9250 
 335   0.0000       3.244404        88.2847 
 336   0.0000       3.256159        88.6046 
 337   0.0000       3.269308        88.9624 
 338   0.0000       3.287419        89.4552 
 339   0.0000       3.292839        89.6027 
 340   0.0000       3.304045        89.9076 
 341   0.0000       3.314325        90.1874 
 342   0.0000       3.319552        90.3296 
 343   0.0000       3.327554        90.5474 
 344   0.0000       3.350053        91.1596 
 345   0.0000       3.356404        91.3324 
 346   0.0000       3.362698        91.5037 
 347   0.0000       3.373721        91.8036 
 348   0.0000       3.381633        92.0189 
 349   0.0000       3.392488        92.3143 
 350   0.0000       3.401534        92.5604 
 351   0.0000       3.406608        92.6985 
 352   0.0000       3.416677        92.9725 
 353   0.0000       3.431958        93.3883 
 354   0.0000       3.444156        93.7202 
 355   0.0000       3.449350        93.8616 
 356   0.0000       3.455263        94.0225 
 357   0.0000       3.467076        94.3439 
 358   0.0000       3.481046        94.7241 
 359   0.0000       3.489937        94.9660 
 360   0.0000       3.502289        95.3021 
 361   0.0000       3.512460        95.5789 
 362   0.0000       3.539857        96.3244 
 363   0.0000       3.546896        96.5159 
 364   0.0000       3.560574        96.8881 
 365   0.0000       3.563972        96.9806 
 366   0.0000       3.574204        97.2590 
 367   0.0000       3.585025        97.5535 
 368   0.0000       3.592295        97.7513 
 369   0.0000       3.602897        98.0398 
 370   0.0000       3.608729        98.1985 
 371   0.0000       3.620015        98.5056 
 372   0.0000       3.636148        98.9446 
 373   0.0000       3.641413        99.0879 
 374   0.0000       3.666866        99.7805 
 375   0.0000       3.679214       100.1165 
 376   0.0000       3.695524       100.5603 
 377   0.0000       3.705475       100.8311 
 378   0.0000       3.717030       101.1455 
 379   0.0000       3.735306       101.6428 
 380   0.0000       3.744380       101.8897 
 381   0.0000       3.764641       102.4411 
 382   0.0000       3.778061       102.8063 
 383   0.0000       3.794526       103.2543 
 384   0.0000       3.803807       103.5069 
 385   0.0000       3.824538       104.0710 
 386   0.0000       3.838203       104.4428 
 387   0.0000       3.846708       104.6743 
 388   0.0000       3.851423       104.8025 
 389   0.0000       3.867168       105.2310 
 390   0.0000       3.879374       105.5631 
 391   0.0000       3.899935       106.1226 
 392   0.0000       3.912999       106.4781 
 393   0.0000       3.921050       106.6972 
 394   0.0000       3.922292       106.7310 
 395   0.0000       3.942705       107.2864 
 396   0.0000       3.970388       108.0397 
 397   0.0000       3.977337       108.2288 
 398   0.0000       3.983868       108.4066 
 399   0.0000       4.001971       108.8992 
 400   0.0000       4.016322       109.2897 
 401   0.0000       4.021109       109.4199 
 402   0.0000       4.034471       109.7835 
 403   0.0000       4.049430       110.1906 
 404   0.0000       4.061499       110.5190 
 405   0.0000       4.065056       110.6158 
 406   0.0000       4.088800       111.2619 
 407   0.0000       4.096249       111.4646 
 408   0.0000       4.106787       111.7513 
 409   0.0000       4.124880       112.2437 
 410   0.0000       4.138996       112.6278 
 411   0.0000       4.142978       112.7362 
 412   0.0000       4.161055       113.2281 
 413   0.0000       4.176933       113.6601 
 414   0.0000       4.185641       113.8971 
 415   0.0000       4.196678       114.1974 
 416   0.0000       4.220408       114.8431 
 417   0.0000       4.229497       115.0905 
 418   0.0000       4.245156       115.5166 
 419   0.0000       4.251343       115.6849 
 420   0.0000       4.257393       115.8495 
 421   0.0000       4.280581       116.4805 
 422   0.0000       4.289746       116.7299 
 423   0.0000       4.295836       116.8956 
 424   0.0000       4.311821       117.3306 
 425   0.0000       4.322045       117.6088 
 426   0.0000       4.336649       118.0062 
 427   0.0000       4.360195       118.6469 
 428   0.0000       4.396774       119.6423 
 429   0.0000       4.411055       120.0309 
 430   0.0000       4.428302       120.5002 
 431   0.0000       4.438571       120.7797 
 432   0.0000       4.467494       121.5667 
 433   0.0000       4.478511       121.8665 
 434   0.0000       4.492741       122.2537 
 435   0.0000       4.498091       122.3993 
 436   0.0000       4.510973       122.7498 
 437   0.0000       4.559921       124.0817 
 438   0.0000       4.585991       124.7911 
 439   0.0000       4.592834       124.9774 
 440   0.0000       4.605967       125.3347 
 441   0.0000       4.618005       125.6623 
 442   0.0000       4.634019       126.0981 
 443   0.0000       4.638986       126.2332 
 444   0.0000       4.691456       127.6610 
 445   0.0000       4.694279       127.7378 
 446   0.0000       4.715017       128.3021 
 447   0.0000       4.733195       128.7968 
 448   0.0000       4.747242       129.1790 
 449   0.0000       4.757444       129.4566 
 450   0.0000       4.776041       129.9627 
 451   0.0000       4.787527       130.2752 
 452   0.0000       4.800948       130.6404 
 453   0.0000       4.815324       131.0316 
 454   0.0000       4.818115       131.1076 
 455   0.0000       4.839635       131.6932 
 456   0.0000       4.848042       131.9219 
 457   0.0000       4.865479       132.3964 
 458   0.0000       4.897385       133.2646 
 459   0.0000       4.922806       133.9564 
 460   0.0000       4.947669       134.6329 
 461   0.0000       4.986776       135.6971 
 462   0.0000       5.006779       136.2414 
 463   0.0000       5.015947       136.4909 
 464   0.0000       5.029430       136.8577 
 465   0.0000       5.039949       137.1440 
 466   0.0000       5.070875       137.9855 
 467   0.0000       5.107528       138.9829 
 468   0.0000       5.112455       139.1170 
 469   0.0000       5.117291       139.2486 
 470   0.0000       5.125834       139.4810 
 471   0.0000       5.132114       139.6519 
 472   0.0000       5.135127       139.7339 
 473   0.0000       5.154151       140.2516 
 474   0.0000       5.170569       140.6983 
 475   0.0000       5.181216       140.9881 
 476   0.0000       5.182320       141.0181 
 477   0.0000       5.209154       141.7483 
 478   0.0000       5.234659       142.4423 
 479   0.0000       5.252983       142.9409 
 480   0.0000       5.255405       143.0068 
 481   0.0000       5.274625       143.5298 
 482   0.0000       5.291301       143.9836 
 483   0.0000       5.301546       144.2624 
 484   0.0000       5.347397       145.5101 
 485   0.0000       5.354452       145.7021 
 486   0.0000       5.358978       145.8252 
 487   0.0000       5.376117       146.2916 
 488   0.0000       5.391767       146.7174 
 489   0.0000       5.400235       146.9479 
 490   0.0000       5.423209       147.5730 
 491   0.0000       5.453216       148.3896 
 492   0.0000       5.462129       148.6321 
 493   0.0000       5.476525       149.0238 
 494   0.0000       5.502789       149.7385 
 495   0.0000       5.517033       150.1261 
 496   0.0000       5.537226       150.6756 
 497   0.0000       5.555213       151.1650 
 498   0.0000       5.565255       151.4383 
 499   0.0000       5.574719       151.6958 
 500   0.0000       5.584307       151.9567 
 501   0.0000       5.594941       152.2461 
 502   0.0000       5.600115       152.3869 
 503   0.0000       5.623491       153.0230 
 504   0.0000       5.632089       153.2569 
 505   0.0000       5.644400       153.5919 
 506   0.0000       5.682944       154.6408 
 507   0.0000       5.707364       155.3053 
 508   0.0000       5.776010       157.1732 
 509   0.0000       5.790659       157.5719 
 510   0.0000       5.836031       158.8065 
 511   0.0000       5.848858       159.1555 
 512   0.0000       5.855638       159.3400 
 513   0.0000       5.934685       161.4910 
 514   0.0000       5.937132       161.5576 
 515   0.0000       5.956706       162.0902 
 516   0.0000       5.980199       162.7295 
 517   0.0000       5.989442       162.9810 
 518   0.0000       6.010524       163.5547 
 519   0.0000       6.084451       165.5663 
 520   0.0000       6.105787       166.1469 
 521   0.0000       6.138868       167.0471 
 522   0.0000       6.161881       167.6733 
 523   0.0000       6.209046       168.9567 
 524   0.0000       6.269669       170.6064 
 525   0.0000       6.329980       172.2475 
 526   0.0000       6.334978       172.3835 
 527   0.0000       6.349280       172.7727 
 528   0.0000       6.384120       173.7207 
 529   0.0000       6.399815       174.1478 
 530   0.0000       6.410006       174.4251 
 531   0.0000       6.422185       174.7565 
 532   0.0000       6.457597       175.7202 
 533   0.0000       6.466156       175.9531 
 534   0.0000       6.472499       176.1257 
 535   0.0000       6.487673       176.5385 
 536   0.0000       6.523873       177.5236 
 537   0.0000       6.550407       178.2456 
 538   0.0000       6.595011       179.4594 
 539   0.0000       6.608388       179.8234 
 540   0.0000       6.633419       180.5045 
 541   0.0000       6.714803       182.7191 
 542   0.0000       6.728371       183.0883 
 543   0.0000       6.746235       183.5744 
 544   0.0000       6.797027       184.9565 
 545   0.0000       6.802571       185.1074 
 546   0.0000       6.812561       185.3792 
 547   0.0000       6.851432       186.4369 
 548   0.0000       6.883178       187.3008 
 549   0.0000       6.930764       188.5957 
 550   0.0000       7.070830       192.4071 
 551   0.0000       7.098037       193.1474 
 552   0.0000       7.146301       194.4607 
 553   0.0000       7.179329       195.3595 
 554   0.0000       7.223996       196.5749 
 555   0.0000       7.305520       198.7933 
 556   0.0000       7.394966       201.2272 
 557   0.0000       7.443545       202.5492 
 558   0.0000      23.104692       628.7106 
 559   0.0000      23.186752       630.9436 
 560   0.0000      23.206608       631.4839 
 561   0.0000      23.304735       634.1541 
 562   0.0000      23.343794       635.2169 
 563   0.0000      23.390531       636.4887 
 564   0.0000      32.705182       889.9532 
 565   0.0000      32.852857       893.9717 
 566   0.0000      32.890413       894.9936 
 567   0.0000      43.858701      1193.4559 
 568   0.0000      43.895001      1194.4437 
 569   0.0000      43.934055      1195.5064 
 570   0.0000      43.941073      1195.6974 

                    ********************************
                    * MULLIKEN POPULATION ANALYSIS *
                    ********************************

-----------------------
MULLIKEN ATOMIC CHARGES
-----------------------
   0 N :   -0.185896
   1 H :    0.147454
   2 C :   -0.069033
   3 C :    0.382832
   4 H :    0.154116
   5 H :    0.149375
   6 O :   -0.451058
   7 C :    0.247509
   8 C :   -0.074508
   9 O :   -0.316525
  10 N :   -0.228230
  11 H :    0.141116
  12 H :    0.154446
  13 H :    0.205552
  14 C :    0.256160
  15 C :   -0.165545
  16 O :   -0.360377
  17 H :    0.160186
  18 H :    0.179491
  19 O :   -0.220166
  20 H :    0.248372
  21 N :   -0.071077
  22 H :    0.234631
  23 H :    0.245837
  24 H :    0.235336
Sum of atomic charges:    1.0000000

--------------------------------
MULLIKEN REDUCED ORBITAL CHARGES
--------------------------------
  0 N s       :     3.395548  s :     3.395548
      pz      :     1.121733  p :     3.731682
      px      :     1.552583
      py      :     1.057366
      dz2     :     0.015829  d :     0.054963
      dxz     :     0.010832
      dyz     :     0.014076
      dx2y2   :     0.009010
      dxy     :     0.005216
      f0      :     0.000611  f :     0.003702
      f+1     :     0.000724
      f-1     :     0.000538
      f+2     :     0.000694
      f-2     :     0.000547
      f+3     :     0.000254
      f-3     :     0.000333
  1 H s       :     0.781207  s :     0.781207
      pz      :     0.018398  p :     0.065864
      px      :     0.024861
      py      :     0.022604
      dz2     :     0.000603  d :     0.005475
      dxz     :     0.000086
      dyz     :     0.001590
      dx2y2   :     0.001131
      dxy     :     0.002065
  2 C s       :     3.153499  s :     3.153499
      pz      :     0.893790  p :     2.795977
      px      :     0.866562
      py      :     1.035625
      dz2     :     0.035543  d :     0.111424
      dxz     :     0.026699
      dyz     :     0.011740
      dx2y2   :     0.022120
      dxy     :     0.015323
      f0      :     0.001728  f :     0.008132
      f+1     :     0.001572
      f-1     :     0.000994
      f+2     :     0.001274
      f-2     :     0.001029
      f+3     :     0.000620
      f-3     :     0.000915
  3 C s       :     3.079407  s :     3.079407
      pz      :     0.671618  p :     2.253633
      px      :     0.838438
      py      :     0.743578
      dz2     :     0.081467  d :     0.259164
      dxz     :     0.043136
      dyz     :     0.043063
      dx2y2   :     0.043364
      dxy     :     0.048135
      f0      :     0.004192  f :     0.024964
      f+1     :     0.002571
      f-1     :     0.004453
      f+2     :     0.004411
      f-2     :     0.004241
      f+3     :     0.002674
      f-3     :     0.002423
  4 H s       :     0.811166  s :     0.811166
      pz      :     0.012400  p :     0.032675
      px      :     0.011112
      py      :     0.009163
      dz2     :     0.000657  d :     0.002043
      dxz     :     0.000426
      dyz     :     0.000554
      dx2y2   :     0.000179
      dxy     :     0.000228
  5 H s       :     0.808676  s :     0.808676
      pz      :     0.010083  p :     0.039744
      px      :     0.008749
      py      :     0.020913
      dz2     :     0.000176  d :     0.002205
      dxz     :     0.000107
      dyz     :     0.000787
      dx2y2   :     0.000372
      dxy     :     0.000764
  6 O s       :     3.817381  s :     3.817381
      pz      :     1.514426  p :     4.605952
      px      :     1.672806
      py      :     1.418720
      dz2     :     0.005587  d :     0.025780
      dxz     :     0.004207
      dyz     :     0.006378
      dx2y2   :     0.005496
      dxy     :     0.004113
      f0      :     0.000216  f :     0.001944
      f+1     :     0.000180
      f-1     :     0.000435
      f+2     :     0.000394
      f-2     :     0.000364
      f+3     :     0.000154
      f-3     :     0.000201
[...]
     53      -0.002571  -0.003189  -0.444258   0.007376   0.015829  -0.000783
     54       0.000363  -0.000511  -0.107228  -0.000953   0.002397   0.000861
     55      -0.001240   0.001307   0.223967  -0.021574  -0.001916  -0.003520
     56       0.003299  -0.003865  -0.537370   0.055045   0.004441   0.006443
     57       0.000048  -0.000004   0.000008   0.000071   0.000008   0.000104
     58       0.000038   0.000006  -0.000077  -0.000968  -0.000215  -0.000166
     59      -0.000117  -0.000002   0.000096   0.001131   0.000231   0.000124
     60       0.000591  -0.000023  -0.000334  -0.004458  -0.000706  -0.002263
     61      -0.001696   0.000018   0.000414   0.005566   0.001236   0.001572
     62      -0.000400   0.000043  -0.000181  -0.002555  -0.000557  -0.000137
     63      -0.000152   0.000044  -0.001537  -0.002523  -0.028365  -0.047934
     64       0.000082   0.000049  -0.001289   0.010336  -0.051282   0.057659
     65      -0.001278   0.000218  -0.004494  -0.066012  -0.035806  -0.011970
     66      -0.000958   0.000036   0.001119  -0.084788   0.103490   0.691958
     67       0.000918  -0.000232  -0.001858   0.081243  -0.095422  -0.685822
     68       0.000066   0.000001   0.000586  -0.008143   0.021691   0.142230
     69       0.002158  -0.000280   0.013307   0.132898   0.004080   0.006185
     70      -0.001773   0.000381  -0.004815  -0.133041  -0.020945  -0.002143
     71       0.016973  -0.002622   0.042192   0.965427   0.087280   0.082476
     72       0.000267  -0.000749   0.002706  -0.025801   0.316035  -0.051263
     73       0.000339  -0.000840   0.021789  -0.083886   0.848427  -0.109860
     74      -0.000242  -0.000248   0.013762  -0.049027   0.382107  -0.056821
                 72         73         74    
      0      -0.000093   0.004271  -0.000095
      1      -0.001013   0.071122  -0.000004
      2       0.000137  -0.012883   0.000139
      3       0.001080  -0.046329   0.000527
      4       0.014176  -0.978205   0.000896
      5      -0.001346   0.188210  -0.000323
      6       0.000008  -0.000593  -0.000612
      7       0.000029   0.000322   0.000523
      8       0.000033   0.000782  -0.000207
      9       0.000001  -0.000021   0.002191
     10      -0.000055   0.000011  -0.000727
     11       0.000099  -0.000163  -0.000899
     12      -0.000075   0.000687   0.000344
     13      -0.000014   0.000733   0.000143
     14      -0.000176   0.000209   0.002884
     15       0.000124  -0.003664  -0.001160
     16      -0.000010  -0.008233  -0.002623
     17      -0.000114   0.001864   0.000643
     18      -0.000013  -0.000087   0.000021
     19       0.000025   0.000063  -0.000657
     20      -0.000064   0.000092   0.000841
     21      -0.000039  -0.000097   0.000036
     22       0.000213   0.000716  -0.000109
     23      -0.000194  -0.001046  -0.000128
     24      -0.001170   0.000034  -0.000008
     25       0.001037   0.000186   0.000001
     26      -0.000457   0.000220  -0.000001
     27      -0.000006   0.000017  -0.000011
     28       0.000001  -0.001119   0.000055
     29       0.000003  -0.000165   0.000034
     30      -0.038094  -0.000446  -0.000044
     31      -0.063519  -0.000908  -0.000081
     32       0.002794  -0.000285   0.000025
     33       0.008990  -0.000305   0.000056
     34       0.000833   0.000086  -0.000036
     35       0.000293  -0.000020   0.000021
     36      -0.000301  -0.000628   0.000024
     37       0.005735   0.000091  -0.000007
     38       0.003410   0.000130   0.000050
     39       0.506211   0.007273   0.000666
     40       0.858312   0.012110   0.001078
     41      -0.034317  -0.002714  -0.000167
     42       0.001493  -0.000176   0.000009
     43      -0.001119  -0.000245   0.000034
     44      -0.000157  -0.000115  -0.000038
     45      -0.000328  -0.000068  -0.000010
     46      -0.000056  -0.000084  -0.000012
     47      -0.000000  -0.000027  -0.000017
     48       0.000872   0.000091   0.000002
     49       0.000860   0.000165  -0.000016
     50      -0.000010  -0.000012   0.000030
     51       0.001762  -0.000051   0.000071
     52       0.001973   0.001016   0.000233
     53       0.000686   0.000161  -0.000045
     54       0.000411   0.000238   0.000084
     55       0.000214   0.000128   0.000039
     56      -0.000034   0.000232   0.000010
     57      -0.000054   0.000055   0.053226
     58       0.000054  -0.000018  -0.030230
     59      -0.000029  -0.000001  -0.006745
     60       0.001132  -0.000775  -0.861239
     61      -0.000661   0.000442   0.493688
     62      -0.000014   0.000129   0.103281
     63       0.000014   0.000009   0.000201
     64      -0.000378   0.000080  -0.000179
     65      -0.000177  -0.000072   0.000403
     66      -0.001752  -0.000067  -0.001607
     67       0.001756  -0.000001   0.001377
     68      -0.000365  -0.000033   0.000158
     69       0.000090   0.000158  -0.002398
     70      -0.000091  -0.000598   0.001983
     71       0.001518   0.001566  -0.006173
     72       0.000499  -0.000052  -0.000347
     73       0.004284  -0.000716  -0.000046
     74       0.001818  -0.000247  -0.000146


-----------
IR SPECTRUM
-----------

 Mode   freq       eps      Int      T**2         TX        TY        TZ
       cm**-1   L/(mol*cm) km/mol    a.u.
----------------------------------------------------------------------------
  6:     53.76   0.000723    3.65  0.004195  (-0.031301  0.012678 -0.055264)
  7:     63.58   0.000543    2.75  0.002667  ( 0.038464  0.027728 -0.020459)
  8:     66.45   0.001462    7.39  0.006868  ( 0.075191 -0.003411  0.034676)
  9:     88.27   0.001401    7.08  0.004954  (-0.064217  0.020648  0.020091)
 10:    110.52   0.003566   18.02  0.010069  ( 0.009759 -0.061482  0.078699)
 11:    120.47   0.000924    4.67  0.002393  ( 0.038394 -0.021966 -0.020888)
 12:    186.23   0.010399   52.55  0.017424  (-0.018402  0.008453 -0.130439)
 13:    222.95   0.000468    2.36  0.000655  (-0.011706 -0.014338  0.017671)
 14:    242.16   0.002070   10.46  0.002667  ( 0.015089 -0.042800 -0.024646)
 15:    259.95   0.003381   17.09  0.004059  (-0.052024 -0.007661 -0.035964)
 16:    278.18   0.002368   11.97  0.002657  (-0.045254  0.024413  0.003553)
 17:    309.73   0.001142    5.77  0.001150  ( 0.023165 -0.017093  0.017928)
 18:    359.95   0.004135   20.90  0.003585  (-0.041278  0.043169  0.004209)
 19:    409.54   0.012612   63.73  0.009610  ( 0.084350 -0.047393 -0.015780)
 20:    438.62   0.011900   60.14  0.008466  (-0.080608  0.002539 -0.044298)
 21:    464.04   0.020615  104.18  0.013864  (-0.032646 -0.028373  0.109512)
 22:    481.60   0.010585   53.49  0.006859  ( 0.041793  0.018780  0.068989)
 23:    520.72   0.005641   28.51  0.003381  (-0.043433 -0.036995  0.011208)
 24:    524.70   0.004256   21.51  0.002531  ( 0.002812  0.016579  0.047417)
 25:    613.65   0.003331   16.83  0.001694  (-0.037565 -0.015032  0.007536)
 26:    631.07   0.003045   15.39  0.001506  ( 0.017176  0.016533  0.030616)
 27:    646.11   0.004935   24.94  0.002384  ( 0.037261 -0.021082 -0.023472)
 28:    671.32   0.017411   87.99  0.008094  ( 0.043849  0.061252  0.049184)
 29:    703.61   0.000464    2.35  0.000206  (-0.003123 -0.001816 -0.013886)
 30:    722.66   0.000245    1.24  0.000106  (-0.006394  0.007991  0.001044)
 31:    879.30   0.004330   21.88  0.001537  ( 0.022578 -0.023224 -0.022080)
 32:    888.99   0.002491   12.59  0.000874  (-0.002182 -0.004147  0.029197)
 33:    916.38   0.004268   21.57  0.001453  (-0.002538  0.029204 -0.024375)
 34:    931.57   0.005283   26.70  0.001770  ( 0.004102  0.000593 -0.041865)
 35:   1010.64   0.001336    6.75  0.000412  ( 0.017412 -0.007693 -0.007075)
 36:   1043.43   0.001379    6.97  0.000412  ( 0.013068 -0.009948  0.011947)
 37:   1057.60   0.001744    8.81  0.000515  ( 0.006890 -0.000477  0.021606)
 38:   1082.71   0.003571   18.05  0.001029  (-0.006134  0.031489 -0.000332)
 39:   1129.65   0.000974    4.92  0.000269  (-0.004077 -0.010363 -0.012044)
 40:   1136.98   0.004905   24.79  0.001346  ( 0.012198 -0.030818  0.015737)
 41:   1168.81   0.005205   26.30  0.001390  (-0.025880 -0.009277  0.025175)
 42:   1208.97   0.040903  206.71  0.010558  ( 0.061585  0.010646 -0.081559)
 43:   1258.26   0.002465   12.46  0.000611  ( 0.001914 -0.017971 -0.016875)
 44:   1271.36   0.008843   44.69  0.002171  ( 0.012800 -0.017246  0.041344)
 45:   1273.65   0.004335   21.91  0.001062  (-0.018204  0.019858  0.018341)
 46:   1314.03   0.012816   64.76  0.003043  (-0.033330  0.025301  0.035950)
 47:   1342.83   0.000646    3.26  0.000150  ( 0.007917  0.003048  0.008840)
 48:   1345.89   0.003604   18.22  0.000836  (-0.013025 -0.006391  0.025005)
 49:   1365.17   0.003765   19.03  0.000861  (-0.024407  0.012130  0.010850)
 50:   1413.73   0.000552    2.79  0.000122  (-0.002738 -0.010690  0.000345)
 51:   1464.14   0.019972  100.93  0.004257  (-0.043685  0.021072  0.043639)
 52:   1470.39   0.018855   95.29  0.004002  ( 0.011935  0.023365 -0.057562)
 53:   1476.71   0.003040   15.36  0.000643  ( 0.022307  0.010449  0.005979)
 54:   1493.74   0.007212   36.45  0.001507  (-0.027129 -0.027001  0.006452)
 55:   1512.81   0.044287  223.81  0.009136  ( 0.095575 -0.000440 -0.000856)
 56:   1567.71   0.025759  130.17  0.005127  (-0.012248 -0.028783 -0.064412)
 57:   1581.91   0.042141  212.96  0.008313  (-0.074371  0.045414  0.026826)
 58:   1611.20   0.003502   17.70  0.000678  ( 0.005864 -0.025376 -0.000092)
 59:   1685.35   0.026820  135.54  0.004966  ( 0.033852 -0.049330  0.037237)
 60:   1781.49   0.090860  459.17  0.015916  (-0.012518 -0.085522  0.091897)
 61:   1792.44   0.038002  192.05  0.006616  (-0.069264  0.013850 -0.040335)
 62:   1837.26   0.053338  269.55  0.009060  ( 0.004100  0.093122  0.019261)
 63:   3087.33   0.003357   16.97  0.000339  (-0.009968  0.007827  0.013368)
 64:   3122.02   0.000255    1.29  0.000026  (-0.004461 -0.000538  0.002308)
 65:   3125.09   0.000346    1.75  0.000035  (-0.005166  0.002066 -0.001903)
 66:   3140.83   0.002093   10.58  0.000208  ( 0.004745 -0.013419 -0.002320)
 67:   3185.96   0.000044    0.22  0.000004  (-0.001987 -0.000548 -0.000111)
 68:   3188.07   0.000103    0.52  0.000010  ( 0.001723  0.000598  0.002601)
 69:   3243.08   0.111638  564.17  0.010742  ( 0.018492 -0.036873  0.095083)
 70:   3341.24   0.023091  116.69  0.002157  ( 0.004531  0.035190  0.029963)
 71:   3561.00   0.027494  138.94  0.002409  ( 0.032629 -0.034848  0.011419)
 72:   3675.48   0.014215   71.84  0.001207  ( 0.025991  0.022718 -0.003913)
 73:   3701.85   0.004860   24.56  0.000410  ( 0.001723 -0.020097  0.001680)
 74:   3803.74   0.024937  126.02  0.002046  (-0.038454  0.011838  0.020663)

* The epsilon (eps) is given for a Dirac delta lineshape.
** The dipole moment derivative (T) already includes vibrational overlap.

The first frequency considered to be a vibration is 6
The total number of vibrations considered is 69


--------------------------
THERMOCHEMISTRY AT 298.15K
--------------------------

Temperature         ... 298.15 K
Pressure            ... 1.00 atm
Total Mass          ... 190.18 AMU

Throughout the following assumptions are being made:
  (1) The electronic state is orbitally nondegenerate
  (2) There are no thermally accessible electronically excited states
  (3) Hindered rotations indicated by low frequency modes are not
      treated as such but are treated as vibrations and this may
      cause some error
  (4) All equations used are the standard statistical mechanics
      equations for an ideal gas
  (5) All vibrations are strictly harmonic

freq.      53.76  E(vib)   ...       0.52 
freq.      63.58  E(vib)   ...       0.51 
freq.      66.45  E(vib)   ...       0.50 
freq.      88.27  E(vib)   ...       0.48 
freq.     110.52  E(vib)   ...       0.45 
freq.     120.47  E(vib)   ...       0.44 
freq.     186.23  E(vib)   ...       0.37 
freq.     222.95  E(vib)   ...       0.33 
freq.     242.16  E(vib)   ...       0.31 
freq.     259.95  E(vib)   ...       0.30 
freq.     278.18  E(vib)   ...       0.28 
freq.     309.73  E(vib)   ...       0.26 
freq.     359.95  E(vib)   ...       0.22 
freq.     409.54  E(vib)   ...       0.19 
freq.     438.62  E(vib)   ...       0.17 
freq.     464.04  E(vib)   ...       0.16 
freq.     481.60  E(vib)   ...       0.15 
freq.     520.72  E(vib)   ...       0.13 
freq.     524.70  E(vib)   ...       0.13 
freq.     613.65  E(vib)   ...       0.10 
freq.     631.07  E(vib)   ...       0.09 
freq.     646.11  E(vib)   ...       0.09 
freq.     671.32  E(vib)   ...       0.08 
freq.     703.61  E(vib)   ...       0.07 
freq.     722.66  E(vib)   ...       0.07 
freq.     879.30  E(vib)   ...       0.04 
freq.     888.99  E(vib)   ...       0.04 
freq.     916.38  E(vib)   ...       0.03 
freq.     931.57  E(vib)   ...       0.03 
freq.    1010.64  E(vib)   ...       0.02 
freq.    1043.43  E(vib)   ...       0.02 
freq.    1057.60  E(vib)   ...       0.02 
freq.    1082.71  E(vib)   ...       0.02 
freq.    1129.65  E(vib)   ...       0.01 
freq.    1136.98  E(vib)   ...       0.01 
freq.    1168.81  E(vib)   ...       0.01 
freq.    1208.97  E(vib)   ...       0.01 
freq.    1258.26  E(vib)   ...       0.01 
freq.    1271.36  E(vib)   ...       0.01 
freq.    1273.65  E(vib)   ...       0.01 
freq.    1314.03  E(vib)   ...       0.01 
freq.    1342.83  E(vib)   ...       0.01 
freq.    1345.89  E(vib)   ...       0.01 
freq.    1365.17  E(vib)   ...       0.01 
freq.    1413.73  E(vib)   ...       0.00 
freq.    1464.14  E(vib)   ...       0.00 
freq.    1470.39  E(vib)   ...       0.00 
freq.    1476.71  E(vib)   ...       0.00 
freq.    1493.74  E(vib)   ...       0.00 
freq.    1512.81  E(vib)   ...       0.00 
freq.    1567.71  E(vib)   ...       0.00 
freq.    1581.91  E(vib)   ...       0.00 
freq.    1611.20  E(vib)   ...       0.00 
freq.    1685.35  E(vib)   ...       0.00 
freq.    1781.49  E(vib)   ...       0.00 
freq.    1792.44  E(vib)   ...       0.00 
freq.    1837.26  E(vib)   ...       0.00 
freq.    3087.33  E(vib)   ...       0.00 
freq.    3122.02  E(vib)   ...       0.00 
freq.    3125.09  E(vib)   ...       0.00 
freq.    3140.83  E(vib)   ...       0.00 
freq.    3185.96  E(vib)   ...       0.00 
freq.    3188.07  E(vib)   ...       0.00 
freq.    3243.08  E(vib)   ...       0.00 
freq.    3341.24  E(vib)   ...       0.00 
freq.    3561.00  E(vib)   ...       0.00 
freq.    3675.48  E(vib)   ...       0.00 
freq.    3701.85  E(vib)   ...       0.00 
freq.    3803.74  E(vib)   ...       0.00 

------------
INNER ENERGY
------------

The inner energy is: U= E(el) + E(ZPE) + E(vib) + E(rot) + E(trans)
    E(el)   - is the total energy from the electronic structure calculation
              = E(kin-el) + E(nuc-el) + E(el-el) + E(nuc-nuc)
    E(ZPE)  - the the zero temperature vibrational energy from the frequency calculation
    E(vib)  - the the finite temperature correction to E(ZPE) due to population
              of excited vibrational states
    E(rot)  - is the rotational thermal energy
    E(trans)- is the translational thermal energy

Summary of contributions to the inner energy U:
Electronic energy                ...   -701.34906157 Eh
Zero point energy                ...      0.20886380 Eh     131.06 kcal/mol
Thermal vibrational correction   ...      0.01068157 Eh       6.70 kcal/mol
Thermal rotational correction    ...      0.00141627 Eh       0.89 kcal/mol
Thermal translational correction ...      0.00141627 Eh       0.89 kcal/mol
-----------------------------------------------------------------------
Total thermal energy                   -701.12668366 Eh


Summary of corrections to the electronic energy:
(perhaps to be used in another calculation)
Total thermal correction                  0.01351411 Eh       8.48 kcal/mol
Non-thermal (ZPE) correction              0.20886380 Eh     131.06 kcal/mol
-----------------------------------------------------------------------
Total correction                          0.22237791 Eh     139.54 kcal/mol


--------
ENTHALPY
--------

The enthalpy is H = U + kB*T
                kB is Boltzmann's constant
Total free energy                 ...   -701.12668366 Eh 
Thermal Enthalpy correction       ...      0.00094421 Eh       0.59 kcal/mol
-----------------------------------------------------------------------
Total Enthalpy                    ...   -701.12573945 Eh


Note: Only C1 symmetry has been detected, increase convergence thresholds 
      if your molecule has a higher symmetry. Symmetry factor of 1.0 is   
      used for the rotational entropy correction. 
 

Note: Rotational entropy computed according to Herzberg 
Infrared and Raman Spectra, Chapter V,1, Van Nostrand Reinhold, 1945 
Point Group:  C1, Symmetry Number:   1  
Rotational constants in cm-1:     0.029676     0.024662     0.015378 

Vibrational entropy computed according to the QRRHO of S. Grimme
Chem.Eur.J. 2012 18 9955


-------
ENTROPY
-------

The entropy contributions are T*S = T*(S(el)+S(vib)+S(rot)+S(trans))
     S(el)   - electronic entropy
     S(vib)  - vibrational entropy
     S(rot)  - rotational entropy
     S(trans)- translational entropy
The entropies will be listed as multiplied by the temperature to get
units of energy

Electronic entropy                ...      0.00000000 Eh      0.00 kcal/mol
Vibrational entropy               ...      0.01868926 Eh     11.73 kcal/mol
Rotational entropy                ...      0.01489016 Eh      9.34 kcal/mol
Translational entropy             ...      0.01978162 Eh     12.41 kcal/mol
-----------------------------------------------------------------------
Final entropy term                ...      0.05336104 Eh     33.48 kcal/mol

In case the symmetry of your molecule has not been determined correctly
or in case you have a reason to use a different symmetry number we print 
out the resulting rotational entropy values for sn=1,12 :
 --------------------------------------------------------
|  sn= 1 | S(rot)=       0.01489016 Eh      9.34 kcal/mol|
|  sn= 2 | S(rot)=       0.01423571 Eh      8.93 kcal/mol|
|  sn= 3 | S(rot)=       0.01385287 Eh      8.69 kcal/mol|
|  sn= 4 | S(rot)=       0.01358125 Eh      8.52 kcal/mol|
|  sn= 5 | S(rot)=       0.01337056 Eh      8.39 kcal/mol|
|  sn= 6 | S(rot)=       0.01319842 Eh      8.28 kcal/mol|
|  sn= 7 | S(rot)=       0.01305287 Eh      8.19 kcal/mol|
|  sn= 8 | S(rot)=       0.01292679 Eh      8.11 kcal/mol|
|  sn= 9 | S(rot)=       0.01281559 Eh      8.04 kcal/mol|
|  sn=10 | S(rot)=       0.01271611 Eh      7.98 kcal/mol|
|  sn=11 | S(rot)=       0.01262612 Eh      7.92 kcal/mol|
|  sn=12 | S(rot)=       0.01254396 Eh      7.87 kcal/mol|
 --------------------------------------------------------


-------------------
GIBBS FREE ENERGY
-------------------

The Gibbs free energy is G = H - T*S

Total enthalpy                    ...   -701.12573945 Eh 
Total entropy correction          ...     -0.05336104 Eh    -33.48 kcal/mol
-----------------------------------------------------------------------
Final Gibbs free energy         ...   -701.17910049 Eh

For completeness - the Gibbs free energy minus the electronic energy
G-E(el)                           ...      0.16996108 Eh    106.65 kcal/mol


Timings for individual modules:

Sum of individual times         ...     5924.512 sec (=  98.742 min)
GTO integral calculation        ...       19.547 sec (=   0.326 min)   0.3 %
SCF iterations                  ...     1753.343 sec (=  29.222 min)  29.6 %
SCF Gradient evaluation         ...      371.238 sec (=   6.187 min)   6.3 %
Geometry relaxation             ...        0.693 sec (=   0.012 min)   0.0 %
Analytical frequency calculation...     3268.901 sec (=  54.482 min)  55.2 %
CHELPG charge generation        ...      510.790 sec (=   8.513 min)   8.6 %
                             ****ORCA TERMINATED NORMALLY****
TOTAL RUN TIME: 0 days 1 hours 39 minutes 6 seconds 670 msec
