
Lmod is automatically replacing "intel/2020.1.217" with "gcc/10.3.0".


Due to MODULEPATH changes, the following have been reloaded:
  1) blis/0.8.1     2) flexiblas/3.0.4

The following have been reloaded with a version change:
  1) gcccore/.9.3.0 => gcccore/.10.3.0        3) openmpi/4.0.3 => openmpi/4.1.1
  2) libfabric/1.10.1 => libfabric/1.12.1     4) ucx/1.8.0 => ucx/1.9.0

To execute ORCA, run: 
   ${EBROOTORCA}/orca orca.inp > orca.out

                                 *****************
                                 * O   R   C   A *
                                 *****************

                                            #,                                       
                                            ###                                      
                                            ####                                     
                                            #####                                    
                                            ######                                   
                                           ########,                                 
                                     ,,################,,,,,                         
                               ,,#################################,,                 
                          ,,##########################################,,             
                       ,#########################################, ''#####,          
                    ,#############################################,,   '####,        
                  ,##################################################,,,,####,       
                ,###########''''           ''''###############################       
              ,#####''   ,,,,##########,,,,          '''####'''          '####       
            ,##' ,,,,###########################,,,                        '##       
           ' ,,###''''                  '''############,,,                           
         ,,##''                                '''############,,,,        ,,,,,,###''
      ,#''                                            '''#######################'''  
     '                                                          ''''####''''         
             ,#######,   #######,   ,#######,      ##                                
            ,#'     '#,  ##    ##  ,#'     '#,    #''#        ######   ,####,        
            ##       ##  ##   ,#'  ##            #'  '#       #        #'  '#        
            ##       ##  #######   ##           ,######,      #####,   #    #        
            '#,     ,#'  ##    ##  '#,     ,#' ,#      #,         ##   #,  ,#        
             '#######'   ##     ##  '#######'  #'      '#     #####' # '####'        



                  #######################################################
                  #                        -***-                        #
                  #          Department of theory and spectroscopy      #
                  #    Directorship and core code : Frank Neese         #
                  #        Max Planck Institute fuer Kohlenforschung    #
                  #                Kaiser Wilhelm Platz 1               #
                  #                 D-45470 Muelheim/Ruhr               #
                  #                      Germany                        #
                  #                                                     #
                  #                  All rights reserved                #
                  #                        -***-                        #
                  #######################################################


                         Program Version 5.0.2 -  RELEASE  -


 With contributions from (in alphabetic order):
   Daniel Aravena         : Magnetic Suceptibility
   Michael Atanasov       : Ab Initio Ligand Field Theory (pilot matlab implementation)
   Alexander A. Auer      : GIAO ZORA, VPT2 properties, NMR spectrum
   Ute Becker             : Parallelization
   Giovanni Bistoni       : ED, misc. LED, open-shell LED, HFLD
   Martin Brehm           : Molecular dynamics
   Dmytro Bykov           : SCF Hessian
   Vijay G. Chilkuri      : MRCI spin determinant printing, contributions to CSF-ICE
   Dipayan Datta          : RHF DLPNO-CCSD density
   Achintya Kumar Dutta   : EOM-CC, STEOM-CC
   Dmitry Ganyushin       : Spin-Orbit,Spin-Spin,Magnetic field MRCI
   Miquel Garcia          : C-PCM and meta-GGA Hessian, CC/C-PCM, Gaussian charge scheme
   Yang Guo               : DLPNO-NEVPT2, F12-NEVPT2, CIM, IAO-localization
   Andreas Hansen         : Spin unrestricted coupled pair/coupled cluster methods
   Benjamin Helmich-Paris : MC-RPA, TRAH-SCF, COSX integrals
   Lee Huntington         : MR-EOM, pCC
   Robert Izsak           : Overlap fitted RIJCOSX, COSX-SCS-MP3, EOM
   Marcus Kettner         : VPT2
   Christian Kollmar      : KDIIS, OOCD, Brueckner-CCSD(T), CCSD density, CASPT2, CASPT2-K
   Simone Kossmann        : Meta GGA functionals, TD-DFT gradient, OOMP2, MP2 Hessian
   Martin Krupicka        : Initial AUTO-CI
   Lucas Lang             : DCDCAS
   Marvin Lechner         : AUTO-CI (C++ implementation), FIC-MRCC
   Dagmar Lenk            : GEPOL surface, SMD
   Dimitrios Liakos       : Extrapolation schemes; Compound Job, initial MDCI parallelization
   Dimitrios Manganas     : Further ROCIS development; embedding schemes
   Dimitrios Pantazis     : SARC Basis sets
   Anastasios Papadopoulos: AUTO-CI, single reference methods and gradients
   Taras Petrenko         : DFT Hessian,TD-DFT gradient, ASA, ECA, R-Raman, ABS, FL, XAS/XES, NRVS
   Peter Pinski           : DLPNO-MP2, DLPNO-MP2 Gradient
   Christoph Reimann      : Effective Core Potentials
   Marius Retegan         : Local ZFS, SOC
   Christoph Riplinger    : Optimizer, TS searches, QM/MM, DLPNO-CCSD(T), (RO)-DLPNO pert. Triples
   Tobias Risthaus        : Range-separated hybrids, TD-DFT gradient, RPA, STAB
   Michael Roemelt        : Original ROCIS implementation
   Masaaki Saitow         : Open-shell DLPNO-CCSD energy and density
   Barbara Sandhoefer     : DKH picture change effects
   Avijit Sen             : IP-ROCIS
   Kantharuban Sivalingam : CASSCF convergence, NEVPT2, FIC-MRCI
   Bernardo de Souza      : ESD, SOC TD-DFT
   Georgi Stoychev        : AutoAux, RI-MP2 NMR, DLPNO-MP2 response
   Willem Van den Heuvel  : Paramagnetic NMR
   Boris Wezisla          : Elementary symmetry handling
   Frank Wennmohs         : Technical directorship


 We gratefully acknowledge several colleagues who have allowed us to
 interface, adapt or use parts of their codes:
   Stefan Grimme, W. Hujo, H. Kruse, P. Pracht,  : VdW corrections, initial TS optimization,
                  C. Bannwarth, S. Ehlert          DFT functionals, gCP, sTDA/sTD-DF
   Ed Valeev, F. Pavosevic, A. Kumar             : LibInt (2-el integral package), F12 methods
   Garnet Chan, S. Sharma, J. Yang, R. Olivares  : DMRG
   Ulf Ekstrom                                   : XCFun DFT Library
   Mihaly Kallay                                 : mrcc  (arbitrary order and MRCC methods)
   Jiri Pittner, Ondrej Demel                    : Mk-CCSD
   Frank Weinhold                                : gennbo (NPA and NBO analysis)
   Christopher J. Cramer and Donald G. Truhlar   : smd solvation model
   Lars Goerigk                                  : TD-DFT with DH, B97 family of functionals
   V. Asgeirsson, H. Jonsson                     : NEB implementation
   FAccTs GmbH                                   : IRC, NEB, NEB-TS, DLPNO-Multilevel, CI-OPT
                                                   MM, QMMM, 2- and 3-layer-ONIOM, Crystal-QMMM,
                                                   LR-CPCM, SF, NACMEs, symmetry and pop. for TD-DFT,
                                                   nearIR, NL-DFT gradient (VV10), updates on ESD,
                                                   ML-optimized integration grids
   S Lehtola, MJT Oliveira, MAL Marques          : LibXC Library
   Liviu Ungur et al                             : ANISO software


 Your calculation uses the libint2 library for the computation of 2-el integrals
 For citations please refer to: http://libint.valeyev.net

 Your ORCA version has been built with support for libXC version: 5.1.0
 For citations please refer to: https://tddft.org/programs/libxc/

 This ORCA versions uses:
   CBLAS   interface :  Fast vector & matrix operations
   LAPACKE interface :  Fast linear algebra routines
   SCALAPACK package :  Parallel linear algebra routines
   Shared memory     :  Shared parallel matrices
   BLAS/LAPACK       :  OpenBLAS 0.3.15  USE64BITINT DYNAMIC_ARCH NO_AFFINITY Zen SINGLE_THREADED
        Core in use  :  Zen
   Copyright (c) 2011-2014, The OpenBLAS Project


Your calculation utilizes the atom-pairwise dispersion correction
with the Becke-Johnson damping scheme (D3BJ)
Cite in your paper:
S.Grimme, S.Ehrlich, L.Goerigk, J Comput Chem, (2011), 32, 1456–1465 
S.Grimme, J.Antony, S.Ehrlich and H.Krieg, J.Chem.Phys., 132, (2010), 154104 
   

================================================================================

----- Orbital basis set information -----
Your calculation utilizes the basis: def2-TZVPP
   F. Weigend and R. Ahlrichs, Phys. Chem. Chem. Phys. 7, 3297 (2005).

----- AuxJ basis set information -----
Your calculation utilizes the auxiliary basis: def2/J
   F. Weigend, Phys. Chem. Chem. Phys. 8, 1057 (2006).

================================================================================
                                        WARNINGS
                       Please study these warnings very carefully!
================================================================================


WARNING: Geometry Optimization
  ===> : Switching off AutoStart
         For restart on a previous wavefunction, please use MOREAD

INFO   : the flag for use of the SHARK integral package has been found!

================================================================================
                                       INPUT FILE
================================================================================
NAME = GGG-H_tt_009_OptFreq.inp
|  1> # GGG-H_tt_009 (old 044)
|  2> ! wB97X-D3BJ Opt Freq def2-TZVPP def2/J RIJCOSX VeryTightSCF
|  3> ! PAL8 defgrid3 VeryTightOpt
|  4> 
|  5> %maxcore 4096
|  6> 
|  7> %geom
|  8>   MaxIter 300
|  9>   # MaxStep 0.1
| 10>   Calc_Hess true
| 11>   Recalc_Hess 10
| 12> end
| 13> 
| 14> %chelpg
| 15>   grid 0.1
| 16>   rmax 3.0
| 17> end
| 18> 
| 19> * xyz 1 1 
| 20>  N   +0.471621   +1.861700   -2.347448
| 21>  H   +1.205727   +2.102531   -1.678231
| 22>  C   +0.813500   +1.694079   -3.736368
| 23>  C   +1.774650   +0.533265   -3.968804
| 24>  H   -0.120421   +1.480123   -4.287872
| 25>  H   +1.254115   +2.606929   -4.174979
| 26>  O   +2.178775   -0.237249   -3.097465
| 27>  C   -0.713079   +1.355311   -1.860155
| 28>  C   -0.745139   +1.229612   -0.322720
| 29>  O   -1.613989   +0.932184   -2.568907
| 30>  N   +0.000000   +0.000000   +0.000000
| 31>  H   -1.783770   +1.122713   +0.014920
| 32>  H   -0.260943   +2.074993   +0.189286
| 33>  H   -0.494553   -0.884281   -0.124142
| 34>  C   +1.343444   +0.000000   +0.000000
| 35>  C   +2.067573   -1.358084   -0.060273
| 36>  O   +2.051035   +1.019301   +0.000000
| 37>  H   +2.321404   -1.721867   +0.948672
| 38>  H   +1.513286   -2.132456   -0.610052
| 39>  O   +2.132677   +0.440990   -5.245681
| 40>  H   +2.734022   -0.326276   -5.360949
| 41>  N   +3.330282   -1.027488   -0.793890
| 42>  H   +4.089202   -1.710809   -0.671211
| 43>  H   +3.096371   -0.872627   -1.811818
| 44>  H   +3.590703   -0.077415   -0.430644
| 45> *
| 46> 
| 47>                          ****END OF INPUT****
================================================================================

                       *****************************
                       * Geometry Optimization Run *
                       *****************************

Geometry optimization settings:
Update method            Update   .... BFGS
Choice of coordinates    CoordSys .... Z-matrix Internals
Initial Hessian          InHess   .... Almoef's Model

Convergence Tolerances:
Energy Change            TolE     ....  2.0000e-07 Eh
Max. Gradient            TolMAXG  ....  3.0000e-05 Eh/bohr
RMS Gradient             TolRMSG  ....  8.0000e-06 Eh/bohr
Max. Displacement        TolMAXD  ....  2.0000e-04 bohr
RMS Displacement         TolRMSD  ....  1.0000e-04 bohr
Strict Convergence                ....  False
------------------------------------------------------------------------------
                        ORCA OPTIMIZATION COORDINATE SETUP
------------------------------------------------------------------------------

The optimization will be done in new redundant internal coordinates
Making redundant internal coordinates   ...  (new redundants) done
Evaluating the initial hessian          ...  (Is done on the fly) done
Evaluating the coordinates              ...  done
Calculating the B-matrix                .... done
Calculating the G-matrix                .... done
Diagonalizing the G-matrix              .... done
Small eigenvalue found = 8.148e-03
Small eigenvalue found = 1.671e-02
The first mode is                       ....   45
The number of degrees of freedom        ....   69

    -----------------------------------------------------------------
                    Redundant Internal Coordinates


    -----------------------------------------------------------------
         Definition                    Initial Value    d2E/dq (diagonal element)
    -----------------------------------------------------------------
      1. B(H   1,N   0)                  1.0221         0.000000   
      2. B(C   2,N   0)                  1.4402         0.000000   
      3. B(C   3,C   2)                  1.5249         0.000000   
      4. B(H   4,C   2)                  1.1055         0.000000   
      5. B(H   5,C   2)                  1.1045         0.000000   
      6. B(O   6,C   3)                  1.2314         0.000000   
      7. B(C   7,N   0)                  1.3775         0.000000   
      8. B(C   8,C   7)                  1.5429         0.000000   
      9. B(O   9,C   7)                  1.2219         0.000000   
     10. B(N  10,C   8)                  1.4735         0.000000   
     11. B(H  11,C   8)                  1.0974         0.000000   
     12. B(H  12,C   8)                  1.1006         0.000000   
     13. B(H  13,N  10)                  1.0208         0.000000   
     14. B(C  14,N  10)                  1.3434         0.000000   
     15. B(C  15,C  14)                  1.5403         0.000000   
     16. B(O  16,C  14)                  1.2408         0.000000   
     17. B(H  17,C  15)                  1.1022         0.000000   
     18. B(H  18,C  15)                  1.0996         0.000000   
     19. B(O  19,C   3)                  1.3293         0.000000   
     20. B(H  20,O  19)                  0.9816         0.000000   
     21. B(N  21,C  15)                  1.4973         0.000000   
     22. B(H  22,N  21)                  1.0286         0.000000   
     23. B(H  23,H  20)                  3.6092         0.000000   
     24. B(H  23,N  21)                  1.0559         0.000000   
     25. B(H  24,N  21)                  1.0500         0.000000   
     26. A(H   1,N   0,C   2)          119.2326         0.000000   
     27. A(C   2,N   0,C   7)          120.1692         0.000000   
     28. A(H   1,N   0,C   7)          118.2100         0.000000   
     29. A(C   3,C   2,H   5)          108.4930         0.000000   
     30. A(C   3,C   2,H   4)          108.0053         0.000000   
     31. A(N   0,C   2,H   4)          107.6440         0.000000   
     32. A(N   0,C   2,C   3)          112.6580         0.000000   
     33. A(N   0,C   2,H   5)          112.4269         0.000000   
     34. A(H   4,C   2,H   5)          107.3897         0.000000   
     35. A(O   6,C   3,O  19)          123.2214         0.000000   
     36. A(C   2,C   3,O  19)          111.6548         0.000000   
     37. A(C   2,C   3,O   6)          125.1235         0.000000   
     38. A(C   8,C   7,O   9)          122.3074         0.000000   
     39. A(N   0,C   7,O   9)          123.7961         0.000000   
     40. A(N   0,C   7,C   8)          113.5989         0.000000   
     41. A(C   7,C   8,H  11)          109.5239         0.000000   
     42. A(C   7,C   8,N  10)          106.0043         0.000000   
     43. A(H  11,C   8,H  12)          110.3707         0.000000   
     44. A(N  10,C   8,H  12)          108.4581         0.000000   
     45. A(C   7,C   8,H  12)          113.0696         0.000000   
     46. A(N  10,C   8,H  11)          109.2653         0.000000   
     47. A(H  13,N  10,C  14)          118.9794         0.000000   
     48. A(C   8,N  10,C  14)          120.3764         0.000000   
     49. A(C   8,N  10,H  13)          116.8243         0.000000   
     50. A(C  15,C  14,O  16)          117.1429         0.000000   
     51. A(N  10,C  14,O  16)          124.7681         0.000000   
     52. A(N  10,C  14,C  15)          118.0431         0.000000   
     53. A(H  17,C  15,H  18)          109.9588         0.000000   
     54. A(C  14,C  15,H  18)          113.7980         0.000000   
     55. A(C  14,C  15,H  17)          111.3141         0.000000   
     56. A(H  18,C  15,N  21)          109.6102         0.000000   
     57. A(H  17,C  15,N  21)          109.0977         0.000000   
     58. A(C  14,C  15,N  21)          102.7659         0.000000   
     59. A(C   3,O  19,H  20)          109.3926         0.000000   
     60. A(H  23,N  21,H  24)          104.8188         0.000000   
     61. A(H  22,N  21,H  24)          112.1403         0.000000   
     62. A(C  15,N  21,H  24)          103.8542         0.000000   
     63. A(H  22,N  21,H  23)          112.0787         0.000000   
     64. A(C  15,N  21,H  23)          108.5365         0.000000   
     65. A(C  15,N  21,H  22)          114.6529         0.000000   
     66. D(H   4,C   2,N   0,C   7)     20.1269         0.000000   
     67. D(H   5,C   2,N   0,C   7)    138.1973         0.000000   
     68. D(H   5,C   2,N   0,H   1)    -59.6514         0.000000   
     69. D(H   4,C   2,N   0,H   1)   -177.7217         0.000000   
     70. D(C   3,C   2,N   0,H   1)     63.3138         0.000000   
     71. D(C   3,C   2,N   0,C   7)    -98.8376         0.000000   
     72. D(O   6,C   3,C   2,H   4)   -115.2104         0.000000   
     73. D(O  19,C   3,C   2,H   5)    -51.5102         0.000000   
     74. D(O  19,C   3,C   2,H   4)     64.5987         0.000000   
     75. D(O   6,C   3,C   2,H   5)    128.6808         0.000000   
     76. D(O  19,C   3,C   2,N   0)   -176.6477         0.000000   
     77. D(O   6,C   3,C   2,N   0)      3.5432         0.000000   
     78. D(O   9,C   7,N   0,H   1)   -173.7546         0.000000   
     79. D(C   8,C   7,N   0,C   2)    162.4251         0.000000   
     80. D(C   8,C   7,N   0,H   1)      0.0943         0.000000   
     81. D(O   9,C   7,N   0,C   2)    -11.4238         0.000000   
     82. D(H  12,C   8,C   7,O   9)   -146.8166         0.000000   
     83. D(H  12,C   8,C   7,N   0)     39.2310         0.000000   
     84. D(H  11,C   8,C   7,O   9)    -23.2811         0.000000   
     85. D(N  10,C   8,C   7,O   9)     94.4869         0.000000   
     86. D(N  10,C   8,C   7,N   0)    -79.4655         0.000000   
     87. D(H  11,C   8,C   7,N   0)    162.7665         0.000000   
     88. D(C  14,N  10,C   8,H  12)    -42.8400         0.000000   
     89. D(C  14,N  10,C   8,H  11)   -163.1981         0.000000   
     90. D(C  14,N  10,C   8,C   7)     78.8617         0.000000   
     91. D(H  13,N  10,C   8,H  12)    159.3856         0.000000   
     92. D(H  13,N  10,C   8,H  11)     39.0275         0.000000   
     93. D(H  13,N  10,C   8,C   7)    -78.9128         0.000000   
     94. D(O  16,C  14,N  10,C   8)     14.7060         0.000000   
     95. D(C  15,C  14,N  10,H  13)     -5.4502         0.000000   
     96. D(C  15,C  14,N  10,C   8)   -162.7528         0.000000   
     97. D(O  16,C  14,N  10,H  13)    172.0086         0.000000   
     98. D(N  21,C  15,C  14,O  16)    -28.4461         0.000000   
     99. D(N  21,C  15,C  14,N  10)    149.2082         0.000000   
    100. D(H  18,C  15,C  14,O  16)   -146.8721         0.000000   
    101. D(H  18,C  15,C  14,N  10)     30.7822         0.000000   
    102. D(H  17,C  15,C  14,O  16)     88.2015         0.000000   
    103. D(H  17,C  15,C  14,N  10)    -94.1442         0.000000   
    104. D(H  20,O  19,C   3,O   6)      1.0302         0.000000   
    105. D(H  20,O  19,C   3,C   2)   -178.7831         0.000000   
    106. D(H  24,N  21,C  15,H  18)    159.1790         0.000000   
    107. D(H  24,N  21,C  15,H  17)    -80.3684         0.000000   
    108. D(H  24,N  21,C  15,C  14)     37.8508         0.000000   
    109. D(H  23,N  21,C  15,H  18)     48.0459         0.000000   
    110. D(H  23,N  21,C  15,H  17)    168.4986         0.000000   
    111. D(H  23,N  21,C  15,C  14)    -73.2823         0.000000   
    112. D(H  22,N  21,C  15,H  18)    -78.1178         0.000000   
    113. D(H  22,N  21,C  15,H  17)     42.3348         0.000000   
    114. D(H  22,N  21,C  15,C  14)    160.5540         0.000000   
    -----------------------------------------------------------------

Number of atoms                         .... 25
Number of degrees of freedom            .... 114

         *************************************************************
         *                GEOMETRY OPTIMIZATION CYCLE   1            *
         *************************************************************
---------------------------------
CARTESIAN COORDINATES (ANGSTROEM)
---------------------------------
  N      0.471621    1.861700   -2.347448
  H      1.205727    2.102531   -1.678231
  C      0.813500    1.694079   -3.736368
  C      1.774650    0.533265   -3.968804
  H     -0.120421    1.480123   -4.287872
  H      1.254115    2.606929   -4.174979
  O      2.178775   -0.237249   -3.097465
  C     -0.713079    1.355311   -1.860155
  C     -0.745139    1.229612   -0.322720
  O     -1.613989    0.932184   -2.568907
  N      0.000000    0.000000    0.000000
  H     -1.783770    1.122713    0.014920
  H     -0.260943    2.074993    0.189286
  H     -0.494553   -0.884281   -0.124142
  C      1.343444    0.000000    0.000000
  C      2.067573   -1.358084   -0.060273
  O      2.051035    1.019301    0.000000
  H      2.321404   -1.721867    0.948672
  H      1.513286   -2.132456   -0.610052
  O      2.132677    0.440990   -5.245681
  H      2.734022   -0.326276   -5.360949
  N      3.330282   -1.027488   -0.793890
  H      4.089202   -1.710809   -0.671211
  H      3.096371   -0.872627   -1.811818
  H      3.590703   -0.077415   -0.430644

----------------------------
CARTESIAN COORDINATES (A.U.)
----------------------------
  NO LB      ZA    FRAG     MASS         X           Y           Z
   0 N     7.0000    0    14.007    0.891235    3.518103   -4.436034
   1 H     1.0000    0     1.008    2.278494    3.973208   -3.171397
   2 C     6.0000    0    12.011    1.537292    3.201345   -7.060712
   3 C     6.0000    0    12.011    3.353602    1.007725   -7.499953
   4 H     1.0000    0     1.008   -0.227563    2.797027   -8.102904
   5 H     1.0000    0     1.008    2.369934    4.926382   -7.889567
   6 O     8.0000    0    15.999    4.117288   -0.448336   -5.853361
   7 C     6.0000    0    12.011   -1.347524    2.561167   -3.515184
   8 C     6.0000    0    12.011   -1.408109    2.323630   -0.609852
   9 O     8.0000    0    15.999   -3.049997    1.761572   -4.854531
  10 N     7.0000    0    14.007    0.000000    0.000000    0.000000
  11 H     1.0000    0     1.008   -3.370837    2.121620    0.028195
  12 H     1.0000    0     1.008   -0.493111    3.921168    0.357699
  13 H     1.0000    0     1.008   -0.934570   -1.671049   -0.234594
  14 C     6.0000    0    12.011    2.538741    0.000000    0.000000
  15 C     6.0000    0    12.011    3.907147   -2.566407   -0.113899
  16 O     8.0000    0    15.999    3.875894    1.926200    0.000000
  17 H     1.0000    0     1.008    4.386818   -3.253857    1.792730
  18 H     1.0000    0     1.008    2.859696   -4.029758   -1.152831
  19 O     8.0000    0    15.999    4.030175    0.833350   -9.912900
  20 H     1.0000    0     1.008    5.166553   -0.616572  -10.130725
  21 N     7.0000    0    14.007    6.293321   -1.941671   -1.500235
  22 H     1.0000    0     1.008    7.727472   -3.232960   -1.268405
  23 H     1.0000    0     1.008    5.851293   -1.649026   -3.423840
  24 H     1.0000    0     1.008    6.785445   -0.146293   -0.813799

--------------------------------
INTERNAL COORDINATES (ANGSTROEM)
--------------------------------
 N      0   0   0     0.000000000000     0.00000000     0.00000000
 H      1   0   0     1.022136283910     0.00000000     0.00000000
 C      1   2   0     1.440165551831   119.23256324     0.00000000
 C      3   1   2     1.524901622791   112.65804951    63.31379320
 H      3   1   2     1.105505434719   107.64395525   182.27825694
 H      3   1   2     1.104452946053   112.42692912   300.34860882
 O      4   3   1     1.231357175129   125.12354099     3.54323273
 C      1   2   3     1.377460844151   118.20995855   162.50013657
 C      8   1   2     1.542898072274   113.59885032     0.09426716
 O      8   1   2     1.221885708130   123.79606956   186.24539040
 N      9   8   1     1.473541990669   106.00431062   280.53448031
 H      9   8   1     1.097352504878   109.52390189   162.76646143
 H      9   8   1     1.100574825086   113.06960490    39.23100305
 H     11   9   8     1.020757950218   116.82434495   281.08720645
 C     11   9   8     1.343444000000   120.37642544    78.86167241
 C     15  11   9     1.540255756109   118.04309628   197.24715805
 O     15  11   9     1.240830186561   124.76808727    14.70598692
 H     16  15  11     1.102151650489   111.31407404   265.85577838
 H     16  15  11     1.099610395365   113.79802799    30.78217439
 O      4   3   1     1.329327981156   111.65475205   183.35230011
 H     20   4   3     0.981631109738   109.39255161   181.21691183
 N     16  15  11     1.497304790811   102.76591556   149.20818759
 H     22  16  15     1.028560786965   114.65285097   160.55396542
 H     22  16  15     1.055875796875   108.53652731   286.71773909
 H     22  16  15     1.049954979552   103.85418858    37.85082088

---------------------------
INTERNAL COORDINATES (A.U.)
---------------------------
 N      0   0   0     0.000000000000     0.00000000     0.00000000
 H      1   0   0     1.931557648134     0.00000000     0.00000000
 C      1   2   0     2.721518480469   119.23256324     0.00000000
 C      3   1   2     2.881646448248   112.65804951    63.31379320
 H      3   1   2     2.089102511180   107.64395525   182.27825694
 H      3   1   2     2.087113595843   112.42692912   300.34860882
 O      4   3   1     2.326927834033   125.12354099     3.54323273
 C      1   2   3     2.603023755646   118.20995855   162.50013657
 C      8   1   2     2.915654809152   113.59885032     0.09426716
 O      8   1   2     2.309029355319   123.79606956   186.24539040
 N      9   8   1     2.784590809198   106.00431062   280.53448031
 H      9   8   1     2.073695706592   109.52390189   162.76646143
 H      9   8   1     2.079785009301   113.06960490    39.23100305
 H     11   9   8     1.928952974936   116.82434495   281.08720645
 C     11   9   8     2.538741236260   120.37642544    78.86167241
 C     15  11   9     2.910661555241   118.04309628   197.24715805
 O     15  11   9     2.344829231303   124.76808727    14.70598692
 H     16  15  11     2.082764777473   111.31407404   265.85577838
 H     16  15  11     2.077962501252   113.79802799    30.78217439
 O      4   3   1     2.512065826542   111.65475205   183.35230011
 H     20   4   3     1.855013961942   109.39255161   181.21691183
 N     16  15  11     2.829495993641   102.76591556   149.20818759
 H     22  16  15     1.943698199454   114.65285097   160.55396542
 H     22  16  15     1.995316087529   108.53652731   286.71773909
 H     22  16  15     1.984127364300   103.85418858    37.85082088

---------------------
BASIS SET INFORMATION
---------------------
There are 4 groups of distinct atoms

 Group   1 Type N   : 11s6p2d1f contracted to 5s3p2d1f pattern {62111/411/11/1}
 Group   2 Type H   : 5s2p1d contracted to 3s2p1d pattern {311/11/1}
 Group   3 Type C   : 11s6p2d1f contracted to 5s3p2d1f pattern {62111/411/11/1}
 Group   4 Type O   : 11s6p2d1f contracted to 5s3p2d1f pattern {62111/411/11/1}

Atom   0N    basis set group =>   1
Atom   1H    basis set group =>   2
Atom   2C    basis set group =>   3
Atom   3C    basis set group =>   3
Atom   4H    basis set group =>   2
Atom   5H    basis set group =>   2
Atom   6O    basis set group =>   4
Atom   7C    basis set group =>   3
Atom   8C    basis set group =>   3
Atom   9O    basis set group =>   4
Atom  10N    basis set group =>   1
Atom  11H    basis set group =>   2
Atom  12H    basis set group =>   2
Atom  13H    basis set group =>   2
Atom  14C    basis set group =>   3
Atom  15C    basis set group =>   3
Atom  16O    basis set group =>   4
Atom  17H    basis set group =>   2
Atom  18H    basis set group =>   2
Atom  19O    basis set group =>   4
Atom  20H    basis set group =>   2
Atom  21N    basis set group =>   1
Atom  22H    basis set group =>   2
Atom  23H    basis set group =>   2
Atom  24H    basis set group =>   2
---------------------------------
AUXILIARY/J BASIS SET INFORMATION
---------------------------------
There are 4 groups of distinct atoms

 Group   1 Type N   : 12s5p4d2f1g contracted to 6s4p3d1f1g pattern {711111/2111/211/2/1}
 Group   2 Type H   : 5s2p1d contracted to 3s1p1d pattern {311/2/1}
 Group   3 Type C   : 12s5p4d2f1g contracted to 6s4p3d1f1g pattern {711111/2111/211/2/1}
 Group   4 Type O   : 12s5p4d2f1g contracted to 6s4p3d1f1g pattern {711111/2111/211/2/1}

Atom   0N    basis set group =>   1
Atom   1H    basis set group =>   2
Atom   2C    basis set group =>   3
Atom   3C    basis set group =>   3
Atom   4H    basis set group =>   2
Atom   5H    basis set group =>   2
Atom   6O    basis set group =>   4
Atom   7C    basis set group =>   3
Atom   8C    basis set group =>   3
Atom   9O    basis set group =>   4
Atom  10N    basis set group =>   1
Atom  11H    basis set group =>   2
Atom  12H    basis set group =>   2
Atom  13H    basis set group =>   2
Atom  14C    basis set group =>   3
Atom  15C    basis set group =>   3
Atom  16O    basis set group =>   4
Atom  17H    basis set group =>   2
Atom  18H    basis set group =>   2
Atom  19O    basis set group =>   4
Atom  20H    basis set group =>   2
Atom  21N    basis set group =>   1
Atom  22H    basis set group =>   2
Atom  23H    basis set group =>   2
Atom  24H    basis set group =>   2


           ************************************************************
           *        Program running with 8 parallel MPI-processes     *
           *              working on a common directory               *
           ************************************************************
------------------------------------------------------------------------------
                           ORCA GTO INTEGRAL CALCULATION
                           -- RI-GTO INTEGRALS CHOSEN --
------------------------------------------------------------------------------
------------------------------------------------------------------------------
                   ___                                                        
                  /   \      - P O W E R E D   B Y -                         
                 /     \                                                     
                 |  |  |   _    _      __       _____    __    __             
                 |  |  |  | |  | |    /  \     |  _  \  |  |  /  |          
                  \  \/   | |  | |   /    \    | | | |  |  | /  /          
                 / \  \   | |__| |  /  /\  \   | |_| |  |  |/  /          
                |  |  |   |  __  | /  /__\  \  |    /   |      \           
                |  |  |   | |  | | |   __   |  |    \   |  |\   \          
                \     /   | |  | | |  |  |  |  | |\  \  |  | \   \       
                 \___/    |_|  |_| |__|  |__|  |_| \__\ |__|  \__/        
                                                                              
                      - O R C A' S   B I G   F R I E N D -                    
                                      &                                       
                       - I N T E G R A L  F E E D E R -                       
                                                                              
 v1 FN, 2020, v2 2021                                                         
------------------------------------------------------------------------------


Reading SHARK input file GGG-H_tt_009_OptFreq.SHARKINP.tmp ... ok
----------------------
SHARK INTEGRAL PACKAGE
----------------------

Number of atoms                             ...     25
Number of basis functions                   ...    571
Number of shells                            ...    215
Maximum angular momentum                    ...      3
Integral batch strategy                     ... SHARK/LIBINT Hybrid
RI-J (if used) integral strategy            ... SPLIT-RIJ (Revised 2003 algorithm where possible)
Printlevel                                  ...      1
Contraction scheme used                     ... SEGMENTED contraction
Coulomb Range Separation                    ... NOT USED
Exchange Range Separation                   ... Long Range
   Mu parameter                             ...  0.300000
   Scaling (regular/separated)              ...  0.167000  0.833000
Finite Nucleus Model                        ... NOT USED
Auxiliary Coulomb fitting basis             ... AVAILABLE
   # of basis functions in Aux-J            ...    769
   # of shells in Aux-J                     ...    255
   Maximum angular momentum in Aux-J        ...      4
Auxiliary J/K fitting basis                 ... NOT available
Auxiliary Correlation fitting basis         ... NOT available
Auxiliary 'external' fitting basis          ... NOT available
Integral threshold                          ...     1.000000e-12
Primitive cut-off                           ...     1.000000e-14
Primitive pair pre-selection threshold      ...     1.000000e-14

Calculating pre-screening integrals         ... done (  0.0 sec) Dimension = 215
Organizing shell pair data                  ... done (  0.2 sec)
Shell pair information
Total number of shell pairs                 ...     23220
Shell pairs after pre-screening             ...     19868
Total number of primitive shell pairs       ...     63868
Primitive shell pairs kept                  ...     39900
          la=0 lb=0:   4319 shell pairs
          la=1 lb=0:   5576 shell pairs
          la=1 lb=1:   1841 shell pairs
          la=2 lb=0:   3135 shell pairs
          la=2 lb=1:   2084 shell pairs
          la=2 lb=2:    596 shell pairs
          la=3 lb=0:   1085 shell pairs
          la=3 lb=1:    737 shell pairs
          la=3 lb=2:    414 shell pairs
          la=3 lb=3:     81 shell pairs

Calculating one electron integrals          ... done (  0.0 sec)
Calculating RI/J V-Matrix + Cholesky decomp.... done (  0.4 sec)
Calculating Nuclear repulsion               ... done (  0.0 sec) ENN=    883.709481710151 Eh

SHARK setup successfully completed in   2.2 seconds

Maximum memory used throughout the entire GTOINT-calculation: 31.6 MB


           ************************************************************
           *        Program running with 8 parallel MPI-processes     *
           *              working on a common directory               *
           ************************************************************
-------------------------------------------------------------------------------
                                 ORCA SCF
-------------------------------------------------------------------------------

------------
SCF SETTINGS
------------
Hamiltonian:
 Density Functional     Method          .... DFT(GTOs)
 Exchange Functional    Exchange        .... WB97X-V
 Correlation Functional Correlation     .... WB97X-V
 Gradients option       PostSCFGGA      .... off
 Hybrid DFT is turned on
   Fraction HF Exchange ScalHFX         ....  0.167000
   Scaling of DF-GGA-X  ScalDFX         ....  0.000000
   Scaling of DF-GGA-C  ScalDFC         ....  1.000000
   Scaling of DF-LDA-C  ScalLDAC        ....  1.000000
   Perturbative correction              ....  0.000000
   Density functional embedding theory  .... OFF
 Long-range corrected/Screened/Range-Separated Hybrid DFT is turned on
   Amount of maximum screened exact exchange              ....  0.833000
   Range separation parameter mu (erf(mu*r12)/r12)        ....  0.300000
 RI-approximation to the Coulomb term is turned on
   Number of AuxJ basis functions       .... 769
   RIJ-COSX (HFX calculated with COS-X)).... on


General Settings:
 Integral files         IntName         .... GGG-H_tt_009_OptFreq
 Hartree-Fock type      HFTyp           .... RHF
 Total Charge           Charge          ....    1
 Multiplicity           Mult            ....    1
 Number of Electrons    NEL             ....  100
 Basis Dimension        Dim             ....  571
 Nuclear Repulsion      ENuc            ....    883.7094817102 Eh

Convergence Acceleration:
 DIIS                   CNVDIIS         .... on
   Start iteration      DIISMaxIt       ....    12
   Startup error        DIISStart       ....  0.200000
   # of expansion vecs  DIISMaxEq       ....     5
   Bias factor          DIISBfac        ....   1.050
   Max. coefficient     DIISMaxC        ....  10.000
 Trust-Rad. Augm. Hess. CNVTRAH         .... auto
   Auto Start mean grad. ratio tolernc. ....  1.125000
   Auto Start start iteration           ....    20
   Auto Start num. interpolation iter.  ....    10
   Max. Number of Micro iterations      ....    16
   Max. Number of Macro iterations      .... Maxiter - #DIIS iter
   Number of Davidson start vectors     ....     2
   Converg. threshold I  (grad. norm)   ....   2.000e-06
   Converg. threshold II (energy diff.) ....   1.000e-09
   Grad. Scal. Fac. for Micro threshold ....   0.100
   Minimum threshold for Micro iter.    ....   0.010
   NR start threshold (gradient norm)   ....   0.001
   Initial trust radius                 ....   0.400
   Minimum AH scaling param. (alpha)    ....   1.000
   Maximum AH scaling param. (alpha)    .... 1000.000
   Orbital update algorithm             .... Taylor
   White noise on init. David. guess    .... on
   Maximum white noise                  ....   0.010
   Quad. conv. algorithm                .... NR
 SOSCF                  CNVSOSCF        .... on
   Start iteration      SOSCFMaxIt      ....   150
   Startup grad/error   SOSCFStart      ....  0.003300
 Level Shifting         CNVShift        .... on
   Level shift para.    LevelShift      ....    0.2500
   Turn off err/grad.   ShiftErr        ....    0.0010
 Zerner damping         CNVZerner       .... off
 Static damping         CNVDamp         .... on
   Fraction old density DampFac         ....    0.7000
   Max. Damping (<1)    DampMax         ....    0.9800
   Min. Damping (>=0)   DampMin         ....    0.0000
   Turn off err/grad.   DampErr         ....    0.1000
 Fernandez-Rico         CNVRico         .... off

SCF Procedure:
 Maximum # iterations   MaxIter         ....   125
 SCF integral mode      SCFMode         .... Direct
   Integral package                     .... SHARK and LIBINT hybrid scheme
 Reset frequency        DirectResetFreq ....    20
 Integral Threshold     Thresh          ....  1.000e-12 Eh
 Primitive CutOff       TCut            ....  1.000e-14 Eh

Convergence Tolerance:
 Convergence Check Mode ConvCheckMode   .... Total+1el-Energy
 Convergence forced     ConvForced      .... 0
 Energy Change          TolE            ....  1.000e-09 Eh
 1-El. energy change                    ....  1.000e-06 Eh
 Orbital Gradient       TolG            ....  2.000e-06
 Orbital Rotation angle TolX            ....  2.000e-06
 DIIS Error             TolErr          ....  1.000e-08


Diagonalization of the overlap matrix:
Smallest eigenvalue                        ... 1.436e-04
Time for diagonalization                   ...    0.057 sec
Threshold for overlap eigenvalues          ... 1.000e-08
Number of eigenvalues below threshold      ... 0
Time for construction of square roots      ...    0.620 sec
Total time needed                          ...    0.699 sec

Time for model grid setup =    0.337 sec

------------------------------
INITIAL GUESS: MODEL POTENTIAL
------------------------------
Loading Hartree-Fock densities                     ... done
Calculating cut-offs                               ... done
Initializing the effective Hamiltonian             ... done
Setting up the integral package (SHARK)            ... done
Starting the Coulomb interaction                   ... done (   0.7 sec)
Reading the grid                                   ... done
Mapping shells                                     ... done
Starting the XC term evaluation                    ... done (   0.1 sec)
  promolecular density results
     # of electrons  =    100.992463793
     EX              =    -58.974072915
     EC              =     -4.270023561
     EX+EC           =    -63.244096476
Transforming the Hamiltonian                       ... done (   0.0 sec)
Diagonalizing the Hamiltonian                      ... done (   0.0 sec)
Back transforming the eigenvectors                 ... done (   0.0 sec)
Now organizing SCF variables                       ... done
                      ------------------
                      INITIAL GUESS DONE (   1.3 sec)
                      ------------------
-------------------
DFT GRID GENERATION
-------------------

General Integration Accuracy     IntAcc      ... 4.959
Radial Grid Type                 RadialGrid  ... OptM3 with GC (2021)
Angular Grid (max. ang.)         AngularGrid ... 6 (Lebedev-590)
Angular grid pruning method      GridPruning ... 4 (adaptive)
Weight generation scheme         WeightScheme... Becke
Basis function cutoff            BFCut       ... 1.0000e-12
Integration weight cutoff        WCut        ... 1.0000e-14
Angular grids for H and He will be reduced by one unit
Partially contracted basis set               ... off
Rotationally invariant grid construction     ... off

Total number of grid points                  ...   288721
Total number of batches                      ...     4525
Average number of points per batch           ...       63
Average number of grid points per atom       ...    11549
Time for grid setup =    3.489 sec

--------------------
COSX GRID GENERATION
--------------------

GRIDX 1
-------
General Integration Accuracy     IntAcc      ... 4.020
Radial Grid Type                 RadialGrid  ... OptM3 with GC (2021)
Angular Grid (max. ang.)         AngularGrid ... 2 (Lebedev-110)
Angular grid pruning method      GridPruning ... 4 (adaptive)
Weight generation scheme         WeightScheme... Becke
Basis function cutoff            BFCut       ... 1.0000e-12
Integration weight cutoff        WCut        ... 1.0000e-14
Angular grids for H and He will be reduced by one unit
Partially contracted basis set               ... on
Rotationally invariant grid construction     ... off

Total number of grid points                  ...    32131
Total number of batches                      ...      514
Average number of points per batch           ...       62
Average number of grid points per atom       ...     1285
UseSFitting                                  ... on

GRIDX 2
-------
General Integration Accuracy     IntAcc      ... 4.338
Radial Grid Type                 RadialGrid  ... OptM3 with GC (2021)
Angular Grid (max. ang.)         AngularGrid ... 3 (Lebedev-194)
Angular grid pruning method      GridPruning ... 4 (adaptive)
Weight generation scheme         WeightScheme... Becke
Basis function cutoff            BFCut       ... 1.0000e-12
Integration weight cutoff        WCut        ... 1.0000e-14
Angular grids for H and He will be reduced by one unit
Partially contracted basis set               ... on
Rotationally invariant grid construction     ... off

Total number of grid points                  ...    70372
Total number of batches                      ...     1110
Average number of points per batch           ...       63
Average number of grid points per atom       ...     2815
UseSFitting                                  ... on

GRIDX 3
-------
General Integration Accuracy     IntAcc      ... 4.871
Radial Grid Type                 RadialGrid  ... OptM3 with GC (2021)
Angular Grid (max. ang.)         AngularGrid ... 4 (Lebedev-302)
Angular grid pruning method      GridPruning ... 4 (adaptive)
Weight generation scheme         WeightScheme... Becke
Basis function cutoff            BFCut       ... 1.0000e-12
Integration weight cutoff        WCut        ... 1.0000e-14
Angular grids for H and He will be reduced by one unit
Partially contracted basis set               ... on
Rotationally invariant grid construction     ... off

Total number of grid points                  ...   133212
Total number of batches                      ...     2093
Average number of points per batch           ...       63
Average number of grid points per atom       ...     5328
UseSFitting                                  ... on

Time for X-Grid setup             =    3.384 sec

--------------
SCF ITERATIONS
--------------
ITER       Energy         Delta-E        Max-DP      RMS-DP      [F,P]     Damp
               ***  Starting incremental Fock matrix formation  ***
  0   -701.1737223709   0.000000000000 0.06309917  0.00045927  0.3425580 0.7000
  1   -701.2189536358  -0.045231264963 0.05428362  0.00041508  0.2343555 0.7000
                               ***Turning on DIIS***
  2   -701.2459167741  -0.026963138280 0.04079049  0.00032166  0.1627281 0.7000
  3   -701.2636777727  -0.017760998613 0.03067896  0.00025479  0.1123543 0.7000
  4   -701.2761222123  -0.012444439585 0.07700794  0.00067036  0.0775167 0.0000
                      *** Initiating the SOSCF procedure ***
                           *** Shutting down DIIS ***
                      *** Re-Reading the Fockian *** 
                      *** Removing any level shift *** 
ITER      Energy       Delta-E        Grad      Rot      Max-DP    RMS-DP
  5   -701.30613397  -0.0300117545  0.001367  0.001367  0.004930  0.000069
               *** Restarting incremental Fock matrix formation ***
  6   -701.30627405  -0.0001400841  0.000763  0.001644  0.003392  0.000041
  7   -701.30631463  -0.0000405797  0.000397  0.001641  0.002476  0.000031
  8   -701.30632300  -0.0000083692  0.000184  0.000324  0.000611  0.000009
  9   -701.30632535  -0.0000023518  0.000078  0.000088  0.000380  0.000005
 10   -701.30632553  -0.0000001781  0.000030  0.000055  0.000146  0.000002
 11   -701.30632567  -0.0000001389  0.000010  0.000028  0.000020  0.000000
 12   -701.30632567  -0.0000000037  0.000003  0.000005  0.000014  0.000000
 13   -701.30632567  -0.0000000022  0.000002  0.000005  0.000004  0.000000
 14   -701.30632567  -0.0000000003  0.000002  0.000003  0.000001  0.000000
                  ***Gradient check signals convergence***
              ***Rediagonalizing the Fockian in SOSCF/NRSCF***

               *****************************************************
               *                     SUCCESS                       *
               *           SCF CONVERGED AFTER  15 CYCLES          *
               *****************************************************

Old exchange energy                            =    -27.833512038 Eh
New exchange energy                            =    -27.833509381 Eh
Exchange energy change after final integration =      0.000002657 Eh
Total energy after final integration           =   -701.306323018 Eh
Final COS-X integration done in                =    32.533 sec

----------------
TOTAL SCF ENERGY
----------------

Total Energy       :         -701.30632302 Eh          -19083.51524 eV

Components:
Nuclear Repulsion  :          883.70948171 Eh           24046.95752 eV
Electronic Energy  :        -1585.01580473 Eh          -43130.47276 eV
One Electron Energy:        -2695.74946502 Eh          -73355.07224 eV
Two Electron Energy:         1110.73366029 Eh           30224.59949 eV
Max COSX asymmetry :            0.00000068 Eh               0.00002 eV

Virial components:
Potential Energy   :        -1399.28532972 Eh          -38076.48959 eV
Kinetic Energy     :          697.97900670 Eh           18992.97436 eV
Virial Ratio       :            2.00476707


DFT components:
N(Alpha)           :       50.000004060574 electrons
N(Beta)            :       50.000004060574 electrons
N(Total)           :      100.000008121148 electrons
E(X)               :      -60.052748521094 Eh       
E(C)               :       -4.267313006195 Eh       
E(XC)              :      -64.320061527289 Eh       
DFET-embed. en.    :        0.000000000000 Eh       

---------------
SCF CONVERGENCE
---------------

  Last Energy change         ...   -3.6425e-10  Tolerance :   1.0000e-09
  Last MAX-Density change    ...    2.4425e-15  Tolerance :   1.0000e-08
  Last RMS-Density change    ...    1.4926e-17  Tolerance :   1.0000e-09
  Last Orbital Gradient      ...    2.6667e-07  Tolerance :   2.0000e-06
  Last Orbital Rotation      ...    5.4097e-07  Tolerance :   2.0000e-06

             **** THE GBW FILE WAS UPDATED (GGG-H_tt_009_OptFreq.gbw) ****
             **** DENSITY GGG-H_tt_009_OptFreq.scfp WAS UPDATED ****
             **** ENERGY FILE WAS UPDATED (GGG-H_tt_009_OptFreq.en.tmp) ****
             **** THE GBW FILE WAS UPDATED (GGG-H_tt_009_OptFreq.gbw) ****
             **** DENSITY GGG-H_tt_009_OptFreq.scfp WAS UPDATED ****
----------------
ORBITAL ENERGIES
----------------

  NO   OCC          E(Eh)            E(eV) 
   0   2.0000     -19.416469      -528.3490 
   1   2.0000     -19.370033      -527.0854 
   2   2.0000     -19.359123      -526.7885 
   3   2.0000     -19.310199      -525.4572 
   4   2.0000     -14.692972      -399.8161 
   5   2.0000     -14.612141      -397.6166 
   6   2.0000     -14.567633      -396.4054 
   7   2.0000     -10.572798      -287.7004 
   8   2.0000     -10.559055      -287.3265 
   9   2.0000     -10.518802      -286.2311 
  10   2.0000     -10.508983      -285.9640 
  11   2.0000     -10.459982      -284.6306 
  12   2.0000     -10.458401      -284.5876 
  13   2.0000      -1.398562       -38.0568 
  14   2.0000      -1.354650       -36.8619 
  15   2.0000      -1.307328       -35.5742 
  16   2.0000      -1.301105       -35.4049 
  17   2.0000      -1.287640       -35.0385 
  18   2.0000      -1.226976       -33.3877 
  19   2.0000      -1.189309       -32.3628 
  20   2.0000      -1.059594       -28.8330 
  21   2.0000      -1.023726       -27.8570 
  22   2.0000      -0.984746       -26.7963 
  23   2.0000      -0.896029       -24.3822 
  24   2.0000      -0.887450       -24.1487 
  25   2.0000      -0.874657       -23.8006 
  26   2.0000      -0.862945       -23.4819 
  27   2.0000      -0.834750       -22.7147 
  28   2.0000      -0.803899       -21.8752 
  29   2.0000      -0.788967       -21.4689 
  30   2.0000      -0.775933       -21.1142 
  31   2.0000      -0.763902       -20.7868 
  32   2.0000      -0.753443       -20.5022 
  33   2.0000      -0.737411       -20.0660 
  34   2.0000      -0.733180       -19.9508 
  35   2.0000      -0.717822       -19.5329 
  36   2.0000      -0.711302       -19.3555 
  37   2.0000      -0.687749       -18.7146 
  38   2.0000      -0.671393       -18.2695 
  39   2.0000      -0.658276       -17.9126 
  40   2.0000      -0.649824       -17.6826 
  41   2.0000      -0.646599       -17.5948 
  42   2.0000      -0.627918       -17.0865 
  43   2.0000      -0.619179       -16.8487 
  44   2.0000      -0.591240       -16.0885 
  45   2.0000      -0.558813       -15.2061 
  46   2.0000      -0.555705       -15.1215 
  47   2.0000      -0.543068       -14.7776 
  48   2.0000      -0.498435       -13.5631 
  49   2.0000      -0.486899       -13.2492 
  50   0.0000      -0.085289        -2.3208 
  51   0.0000      -0.065135        -1.7724 
  52   0.0000      -0.062789        -1.7086 
  53   0.0000      -0.033739        -0.9181 
  54   0.0000      -0.022392        -0.6093 
  55   0.0000      -0.017794        -0.4842 
  56   0.0000      -0.000229        -0.0062 
  57   0.0000       0.010945         0.2978 
  58   0.0000       0.018260         0.4969 
  59   0.0000       0.020462         0.5568 
  60   0.0000       0.037071         1.0088 
  61   0.0000       0.054210         1.4751 
  62   0.0000       0.066655         1.8138 
  63   0.0000       0.070084         1.9071 
  64   0.0000       0.074419         2.0251 
  65   0.0000       0.079347         2.1591 
  66   0.0000       0.087977         2.3940 
  67   0.0000       0.104423         2.8415 
  68   0.0000       0.107836         2.9344 
  69   0.0000       0.110569         3.0087 
  70   0.0000       0.118583         3.2268 
  71   0.0000       0.136504         3.7145 
  72   0.0000       0.148068         4.0291 
  73   0.0000       0.148979         4.0539 
  74   0.0000       0.162665         4.4263 
  75   0.0000       0.172409         4.6915 
  76   0.0000       0.182164         4.9569 
  77   0.0000       0.191587         5.2133 
  78   0.0000       0.195077         5.3083 
  79   0.0000       0.205277         5.5859 
  80   0.0000       0.218439         5.9440 
  81   0.0000       0.223027         6.0689 
  82   0.0000       0.236921         6.4470 
  83   0.0000       0.244846         6.6626 
  84   0.0000       0.259266         7.0550 
  85   0.0000       0.265959         7.2371 
  86   0.0000       0.276965         7.5366 
  87   0.0000       0.285028         7.7560 
  88   0.0000       0.294845         8.0231 
  89   0.0000       0.300506         8.1772 
  90   0.0000       0.305809         8.3215 
  91   0.0000       0.316318         8.6074 
  92   0.0000       0.321085         8.7372 
  93   0.0000       0.322111         8.7651 
  94   0.0000       0.326903         8.8955 
  95   0.0000       0.341394         9.2898 
  96   0.0000       0.342451         9.3186 
  97   0.0000       0.343936         9.3590 
  98   0.0000       0.353232         9.6119 
  99   0.0000       0.356699         9.7063 
 100   0.0000       0.358398         9.7525 
 101   0.0000       0.366123         9.9627 
 102   0.0000       0.372677        10.1411 
 103   0.0000       0.375796        10.2259 
 104   0.0000       0.387814        10.5530 
 105   0.0000       0.399013        10.8577 
 106   0.0000       0.410111        11.1597 
 107   0.0000       0.412783        11.2324 
 108   0.0000       0.423813        11.5325 
 109   0.0000       0.428973        11.6730 
 110   0.0000       0.436629        11.8813 
 111   0.0000       0.446204        12.1418 
 112   0.0000       0.460963        12.5434 
 113   0.0000       0.471555        12.8317 
 114   0.0000       0.479249        13.0410 
 115   0.0000       0.483383        13.1535 
 116   0.0000       0.487948        13.2777 
 117   0.0000       0.498911        13.5760 
 118   0.0000       0.506224        13.7751 
 119   0.0000       0.525467        14.2987 
 120   0.0000       0.537145        14.6164 
 121   0.0000       0.542285        14.7563 
 122   0.0000       0.547370        14.8947 
 123   0.0000       0.562612        15.3094 
 124   0.0000       0.568495        15.4695 
 125   0.0000       0.584403        15.9024 
 126   0.0000       0.598111        16.2754 
 127   0.0000       0.608377        16.5548 
 128   0.0000       0.621419        16.9097 
 129   0.0000       0.634312        17.2605 
 130   0.0000       0.648588        17.6490 
 131   0.0000       0.650306        17.6957 
 132   0.0000       0.655011        17.8237 
 133   0.0000       0.660118        17.9627 
 134   0.0000       0.685854        18.6630 
 135   0.0000       0.690048        18.7772 
 136   0.0000       0.705862        19.2075 
 137   0.0000       0.715661        19.4741 
 138   0.0000       0.723601        19.6902 
 139   0.0000       0.739183        20.1142 
 140   0.0000       0.750120        20.4118 
 141   0.0000       0.758202        20.6317 
 142   0.0000       0.769916        20.9505 
 143   0.0000       0.782873        21.3031 
 144   0.0000       0.788285        21.4503 
 145   0.0000       0.792036        21.5524 
 146   0.0000       0.808644        22.0043 
 147   0.0000       0.820341        22.3226 
 148   0.0000       0.829045        22.5595 
 149   0.0000       0.846106        23.0237 
 150   0.0000       0.860630        23.4189 
 151   0.0000       0.864388        23.5212 
 152   0.0000       0.875006        23.8101 
 153   0.0000       0.892135        24.2762 
 154   0.0000       0.894246        24.3337 
 155   0.0000       0.913894        24.8683 
 156   0.0000       0.917743        24.9730 
 157   0.0000       0.932322        25.3698 
 158   0.0000       0.940780        25.5999 
 159   0.0000       0.950407        25.8619 
 160   0.0000       0.960716        26.1424 
 161   0.0000       0.971888        26.4464 
 162   0.0000       0.976570        26.5738 
 163   0.0000       0.988039        26.8859 
 164   0.0000       0.997637        27.1471 
 165   0.0000       1.000846        27.2344 
 166   0.0000       1.020799        27.7773 
 167   0.0000       1.030481        28.0408 
 168   0.0000       1.038708        28.2647 
 169   0.0000       1.051544        28.6140 
 170   0.0000       1.062078        28.9006 
 171   0.0000       1.071838        29.1662 
 172   0.0000       1.085841        29.5472 
 173   0.0000       1.094364        29.7791 
 174   0.0000       1.095381        29.8068 
 175   0.0000       1.110678        30.2231 
 176   0.0000       1.116228        30.3741 
 177   0.0000       1.126416        30.6513 
 178   0.0000       1.132175        30.8080 
 179   0.0000       1.142958        31.1015 
 180   0.0000       1.148197        31.2440 
 181   0.0000       1.165786        31.7227 
 182   0.0000       1.178542        32.0698 
 183   0.0000       1.185186        32.2505 
 184   0.0000       1.193054        32.4646 
 185   0.0000       1.213523        33.0216 
 186   0.0000       1.217217        33.1222 
 187   0.0000       1.239724        33.7346 
 188   0.0000       1.251277        34.0490 
 189   0.0000       1.263014        34.3684 
 190   0.0000       1.274828        34.6898 
 191   0.0000       1.278348        34.7856 
 192   0.0000       1.298664        35.3385 
 193   0.0000       1.306377        35.5483 
 194   0.0000       1.329158        36.1682 
 195   0.0000       1.348467        36.6937 
 196   0.0000       1.359448        36.9925 
 197   0.0000       1.376039        37.4439 
 198   0.0000       1.384755        37.6811 
 199   0.0000       1.390866        37.8474 
 200   0.0000       1.411705        38.4145 
 201   0.0000       1.415773        38.5252 
 202   0.0000       1.419491        38.6263 
 203   0.0000       1.428044        38.8591 
 204   0.0000       1.429113        38.8881 
 205   0.0000       1.441655        39.2294 
 206   0.0000       1.442558        39.2540 
 207   0.0000       1.453029        39.5389 
 208   0.0000       1.460661        39.7466 
 209   0.0000       1.473355        40.0920 
 210   0.0000       1.498352        40.7722 
 211   0.0000       1.513631        41.1880 
 212   0.0000       1.520522        41.3755 
 213   0.0000       1.530880        41.6574 
 214   0.0000       1.536022        41.7973 
 215   0.0000       1.544499        42.0279 
 216   0.0000       1.559303        42.4308 
 217   0.0000       1.573591        42.8196 
 218   0.0000       1.580845        43.0170 
 219   0.0000       1.594652        43.3927 
 220   0.0000       1.615578        43.9621 
 221   0.0000       1.637671        44.5633 
 222   0.0000       1.655753        45.0553 
 223   0.0000       1.663746        45.2728 
 224   0.0000       1.687776        45.9267 
 225   0.0000       1.704320        46.3769 
 226   0.0000       1.728818        47.0435 
 227   0.0000       1.740616        47.3646 
 228   0.0000       1.743154        47.4336 
 229   0.0000       1.763361        47.9835 
 230   0.0000       1.765189        48.0332 
 231   0.0000       1.776104        48.3303 
 232   0.0000       1.812330        49.3160 
 233   0.0000       1.829623        49.7866 
 234   0.0000       1.837007        49.9875 
 235   0.0000       1.852876        50.4193 
 236   0.0000       1.878238        51.1095 
 237   0.0000       1.882148        51.2159 
 238   0.0000       1.915625        52.1268 
 239   0.0000       1.930216        52.5239 
 240   0.0000       1.943152        52.8759 
 241   0.0000       1.945398        52.9370 
 242   0.0000       1.976716        53.7892 
 243   0.0000       1.984639        54.0048 
 244   0.0000       2.013486        54.7897 
 245   0.0000       2.015034        54.8319 
 246   0.0000       2.029165        55.2164 
 247   0.0000       2.051201        55.8160 
 248   0.0000       2.059361        56.0381 
 249   0.0000       2.084615        56.7253 
 250   0.0000       2.089501        56.8582 
 251   0.0000       2.103931        57.2509 
 252   0.0000       2.152385        58.5694 
 253   0.0000       2.162188        58.8361 
 254   0.0000       2.208366        60.0927 
 255   0.0000       2.226295        60.5806 
 256   0.0000       2.234218        60.7962 
 257   0.0000       2.243421        61.0466 
 258   0.0000       2.270636        61.7872 
 259   0.0000       2.288553        62.2747 
 260   0.0000       2.301710        62.6327 
 261   0.0000       2.308254        62.8108 
 262   0.0000       2.321213        63.1634 
 263   0.0000       2.341186        63.7069 
 264   0.0000       2.381507        64.8041 
 265   0.0000       2.405633        65.4606 
 266   0.0000       2.423672        65.9515 
 267   0.0000       2.456652        66.8489 
 268   0.0000       2.463844        67.0446 
 269   0.0000       2.479275        67.4645 
 270   0.0000       2.492882        67.8348 
 271   0.0000       2.514449        68.4216 
 272   0.0000       2.520358        68.5824 
 273   0.0000       2.527649        68.7808 
 274   0.0000       2.541775        69.1652 
 275   0.0000       2.552461        69.4560 
 276   0.0000       2.574089        70.0445 
 277   0.0000       2.586401        70.3796 
 278   0.0000       2.609426        71.0061 
 279   0.0000       2.609726        71.0143 
 280   0.0000       2.618575        71.2550 
 281   0.0000       2.623754        71.3960 
 282   0.0000       2.631990        71.6201 
 283   0.0000       2.646776        72.0224 
 284   0.0000       2.662587        72.4527 
 285   0.0000       2.692709        73.2723 
 286   0.0000       2.699713        73.4629 
 287   0.0000       2.715915        73.9038 
 288   0.0000       2.729666        74.2780 
 289   0.0000       2.740519        74.5733 
 290   0.0000       2.754742        74.9603 
 291   0.0000       2.774002        75.4844 
 292   0.0000       2.785352        75.7933 
 293   0.0000       2.808375        76.4198 
 294   0.0000       2.821985        76.7901 
 295   0.0000       2.831767        77.0563 
 296   0.0000       2.851301        77.5878 
 297   0.0000       2.854772        77.6823 
 298   0.0000       2.868696        78.0612 
 299   0.0000       2.880679        78.3873 
 300   0.0000       2.889269        78.6210 
 301   0.0000       2.907622        79.1204 
 302   0.0000       2.914949        79.3198 
 303   0.0000       2.923681        79.5574 
 304   0.0000       2.940884        80.0255 
 305   0.0000       2.949197        80.2517 
 306   0.0000       2.952412        80.3392 
 307   0.0000       2.959410        80.5296 
 308   0.0000       2.972247        80.8790 
 309   0.0000       2.982691        81.1632 
 310   0.0000       3.007490        81.8380 
 311   0.0000       3.012912        81.9855 
 312   0.0000       3.023422        82.2715 
 313   0.0000       3.036325        82.6226 
 314   0.0000       3.044811        82.8535 
 315   0.0000       3.047256        82.9201 
 316   0.0000       3.056011        83.1583 
 317   0.0000       3.061377        83.3043 
 318   0.0000       3.074719        83.6674 
 319   0.0000       3.078927        83.7819 
 320   0.0000       3.091332        84.1194 
 321   0.0000       3.106005        84.5187 
 322   0.0000       3.111143        84.6585 
 323   0.0000       3.121336        84.9359 
 324   0.0000       3.128567        85.1326 
 325   0.0000       3.135044        85.3089 
 326   0.0000       3.150164        85.7203 
 327   0.0000       3.169271        86.2403 
 328   0.0000       3.179593        86.5211 
 329   0.0000       3.183871        86.6375 
 330   0.0000       3.197133        86.9984 
 331   0.0000       3.205479        87.2255 
 332   0.0000       3.221333        87.6569 
 333   0.0000       3.230344        87.9021 
 334   0.0000       3.235747        88.0491 
 335   0.0000       3.252795        88.5130 
 336   0.0000       3.268595        88.9430 
 337   0.0000       3.282786        89.3291 
 338   0.0000       3.284423        89.3737 
 339   0.0000       3.291670        89.5709 
 340   0.0000       3.298363        89.7530 
 341   0.0000       3.302986        89.8788 
 342   0.0000       3.315473        90.2186 
 343   0.0000       3.325469        90.4906 
 344   0.0000       3.338010        90.8319 
 345   0.0000       3.348843        91.1267 
 346   0.0000       3.359992        91.4300 
 347   0.0000       3.364018        91.5396 
 348   0.0000       3.378818        91.9423 
 349   0.0000       3.385104        92.1134 
 350   0.0000       3.396759        92.4305 
 351   0.0000       3.401705        92.5651 
 352   0.0000       3.416348        92.9636 
 353   0.0000       3.430886        93.3591 
 354   0.0000       3.437647        93.5431 
 355   0.0000       3.454039        93.9892 
 356   0.0000       3.464618        94.2770 
 357   0.0000       3.466435        94.3265 
 358   0.0000       3.472759        94.4986 
 359   0.0000       3.482888        94.7742 
 360   0.0000       3.503433        95.3333 
 361   0.0000       3.528883        96.0258 
 362   0.0000       3.534797        96.1867 
 363   0.0000       3.547237        96.5252 
 364   0.0000       3.564427        96.9930 
 365   0.0000       3.572331        97.2081 
 366   0.0000       3.582165        97.4757 
 367   0.0000       3.589380        97.6720 
 368   0.0000       3.599386        97.9443 
 369   0.0000       3.602486        98.0286 
 370   0.0000       3.614974        98.3685 
 371   0.0000       3.626015        98.6689 
 372   0.0000       3.630284        98.7851 
 373   0.0000       3.650369        99.3316 
 374   0.0000       3.662727        99.6679 
 375   0.0000       3.681298       100.1732 
 376   0.0000       3.690304       100.4183 
 377   0.0000       3.704518       100.8050 
 378   0.0000       3.723354       101.3176 
 379   0.0000       3.733005       101.5802 
 380   0.0000       3.745979       101.9333 
 381   0.0000       3.765672       102.4691 
 382   0.0000       3.771039       102.6152 
 383   0.0000       3.794842       103.2629 
 384   0.0000       3.804582       103.5279 
 385   0.0000       3.810021       103.6759 
 386   0.0000       3.830714       104.2390 
 387   0.0000       3.839529       104.4789 
 388   0.0000       3.851019       104.7916 
 389   0.0000       3.863416       105.1289 
 390   0.0000       3.884518       105.7031 
 391   0.0000       3.902380       106.1892 
 392   0.0000       3.916803       106.5816 
 393   0.0000       3.925294       106.8127 
 394   0.0000       3.936060       107.1056 
 395   0.0000       3.940738       107.2329 
 396   0.0000       3.955171       107.6257 
 397   0.0000       3.963870       107.8624 
 398   0.0000       3.987626       108.5088 
 399   0.0000       3.991352       108.6102 
 400   0.0000       3.998938       108.8166 
 401   0.0000       4.011379       109.1552 
 402   0.0000       4.028644       109.6250 
 403   0.0000       4.042710       110.0077 
 404   0.0000       4.052890       110.2847 
 405   0.0000       4.066264       110.6487 
 406   0.0000       4.087272       111.2203 
 407   0.0000       4.099574       111.5551 
 408   0.0000       4.107966       111.7834 
 409   0.0000       4.116257       112.0090 
 410   0.0000       4.132744       112.4577 
 411   0.0000       4.157888       113.1419 
 412   0.0000       4.161897       113.2510 
 413   0.0000       4.177960       113.6881 
 414   0.0000       4.182511       113.8119 
 415   0.0000       4.197651       114.2239 
 416   0.0000       4.205738       114.4440 
 417   0.0000       4.217416       114.7617 
 418   0.0000       4.226957       115.0213 
 419   0.0000       4.247641       115.5842 
 420   0.0000       4.259154       115.8975 
 421   0.0000       4.266679       116.1023 
 422   0.0000       4.270956       116.2186 
 423   0.0000       4.280777       116.4859 
 424   0.0000       4.314601       117.4063 
 425   0.0000       4.325399       117.7001 
 426   0.0000       4.347365       118.2978 
 427   0.0000       4.376832       119.0997 
 428   0.0000       4.389427       119.4424 
 429   0.0000       4.409223       119.9811 
 430   0.0000       4.418880       120.2438 
 431   0.0000       4.432379       120.6112 
 432   0.0000       4.481403       121.9452 
 433   0.0000       4.490432       122.1909 
 434   0.0000       4.502720       122.5252 
 435   0.0000       4.521621       123.0396 
 436   0.0000       4.547932       123.7555 
 437   0.0000       4.571243       124.3898 
 438   0.0000       4.584461       124.7495 
 439   0.0000       4.612030       125.4997 
 440   0.0000       4.620799       125.7383 
 441   0.0000       4.625923       125.8778 
 442   0.0000       4.645238       126.4033 
 443   0.0000       4.656366       126.7062 
 444   0.0000       4.672902       127.1561 
 445   0.0000       4.696344       127.7940 
 446   0.0000       4.718978       128.4099 
 447   0.0000       4.727076       128.6303 
 448   0.0000       4.749255       129.2338 
 449   0.0000       4.759965       129.5252 
 450   0.0000       4.777332       129.9978 
 451   0.0000       4.789266       130.3226 
 452   0.0000       4.799608       130.6040 
 453   0.0000       4.817154       131.0814 
 454   0.0000       4.838487       131.6619 
 455   0.0000       4.851310       132.0108 
 456   0.0000       4.863431       132.3407 
 457   0.0000       4.882100       132.8487 
 458   0.0000       4.926191       134.0485 
 459   0.0000       4.954265       134.8124 
 460   0.0000       4.962340       135.0321 
 461   0.0000       4.987263       135.7103 
 462   0.0000       4.995655       135.9387 
 463   0.0000       5.014115       136.4410 
 464   0.0000       5.023639       136.7002 
 465   0.0000       5.038005       137.0911 
 466   0.0000       5.067546       137.8949 
 467   0.0000       5.096189       138.6744 
 468   0.0000       5.101287       138.8131 
 469   0.0000       5.106102       138.9441 
 470   0.0000       5.121203       139.3550 
 471   0.0000       5.136407       139.7687 
 472   0.0000       5.144373       139.9855 
 473   0.0000       5.158973       140.3828 
 474   0.0000       5.166399       140.5849 
 475   0.0000       5.184121       141.0671 
 476   0.0000       5.198894       141.4691 
 477   0.0000       5.208903       141.7415 
 478   0.0000       5.232088       142.3724 
 479   0.0000       5.252043       142.9154 
 480   0.0000       5.259571       143.1202 
 481   0.0000       5.261632       143.1763 
 482   0.0000       5.282786       143.7519 
 483   0.0000       5.311356       144.5293 
 484   0.0000       5.321587       144.8078 
 485   0.0000       5.329918       145.0344 
 486   0.0000       5.353198       145.6679 
 487   0.0000       5.357904       145.7960 
 488   0.0000       5.365801       146.0109 
 489   0.0000       5.399493       146.9277 
 490   0.0000       5.410750       147.2340 
 491   0.0000       5.444685       148.1574 
 492   0.0000       5.455368       148.4481 
 493   0.0000       5.462824       148.6510 
 494   0.0000       5.506433       149.8377 
 495   0.0000       5.521179       150.2389 
 496   0.0000       5.531317       150.5148 
 497   0.0000       5.548187       150.9738 
 498   0.0000       5.552844       151.1006 
 499   0.0000       5.565103       151.4341 
 500   0.0000       5.573617       151.6658 
 501   0.0000       5.591139       152.1426 
 502   0.0000       5.595532       152.2622 
 503   0.0000       5.630716       153.2196 
 504   0.0000       5.640869       153.4959 
 505   0.0000       5.647611       153.6793 
 506   0.0000       5.667727       154.2267 
 507   0.0000       5.698120       155.0537 
 508   0.0000       5.758189       156.6883 
 509   0.0000       5.780217       157.2877 
 510   0.0000       5.823163       158.4563 
 511   0.0000       5.840087       158.9169 
 512   0.0000       5.861187       159.4910 
 513   0.0000       5.901925       160.5996 
 514   0.0000       5.929662       161.3543 
 515   0.0000       5.964021       162.2893 
 516   0.0000       5.973453       162.5459 
 517   0.0000       5.988242       162.9484 
 518   0.0000       6.006704       163.4507 
 519   0.0000       6.086458       165.6209 
 520   0.0000       6.093625       165.8160 
 521   0.0000       6.144561       167.2020 
 522   0.0000       6.150494       167.3635 
 523   0.0000       6.191734       168.4856 
 524   0.0000       6.272342       170.6791 
 525   0.0000       6.312618       171.7751 
 526   0.0000       6.319256       171.9557 
 527   0.0000       6.331486       172.2885 
 528   0.0000       6.384597       173.7337 
 529   0.0000       6.390109       173.8837 
 530   0.0000       6.404332       174.2707 
 531   0.0000       6.423365       174.7886 
 532   0.0000       6.437978       175.1863 
 533   0.0000       6.471416       176.0962 
 534   0.0000       6.482910       176.4090 
 535   0.0000       6.486612       176.5097 
 536   0.0000       6.528762       177.6567 
 537   0.0000       6.548338       178.1893 
 538   0.0000       6.592472       179.3903 
 539   0.0000       6.622025       180.1945 
 540   0.0000       6.662597       181.2985 
 541   0.0000       6.711252       182.6224 
 542   0.0000       6.721991       182.9147 
 543   0.0000       6.736131       183.2994 
 544   0.0000       6.785115       184.6324 
 545   0.0000       6.812240       185.3705 
 546   0.0000       6.834634       185.9798 
 547   0.0000       6.847852       186.3395 
 548   0.0000       6.874436       187.0629 
 549   0.0000       6.935537       188.7256 
 550   0.0000       7.046413       191.7426 
 551   0.0000       7.084614       192.7822 
 552   0.0000       7.142733       194.3637 
 553   0.0000       7.164525       194.9566 
 554   0.0000       7.220951       196.4921 
 555   0.0000       7.315061       199.0529 
 556   0.0000       7.416210       201.8053 
 557   0.0000       7.447819       202.6655 
 558   0.0000      23.114913       628.9887 
 559   0.0000      23.193152       631.1178 
 560   0.0000      23.242553       632.4620 
 561   0.0000      23.293281       633.8424 
 562   0.0000      23.336989       635.0318 
 563   0.0000      23.391651       636.5192 
 564   0.0000      32.711230       890.1178 
 565   0.0000      32.823803       893.1811 
 566   0.0000      32.894934       895.1167 
 567   0.0000      43.858343      1193.4462 
 568   0.0000      43.887460      1194.2385 
 569   0.0000      43.928453      1195.3540 
 570   0.0000      43.974212      1196.5992 

                    ********************************
                    * MULLIKEN POPULATION ANALYSIS *
                    ********************************

-----------------------
MULLIKEN ATOMIC CHARGES
-----------------------
   0 N :   -0.198612
   1 H :    0.190183
   2 C :   -0.088230
   3 C :    0.372858
   4 H :    0.152273
   5 H :    0.159326
   6 O :   -0.436814
   7 C :    0.232906
   8 C :   -0.102966
   9 O :   -0.337680
  10 N :   -0.169622
  11 H :    0.152973
  12 H :    0.153483
  13 H :    0.200289
  14 C :    0.295095
  15 C :   -0.161137
  16 O :   -0.424802
  17 H :    0.175646
  18 H :    0.160549
  19 O :   -0.220756
  20 H :    0.248886
  21 N :   -0.071256
  22 H :    0.235636
  23 H :    0.247404
  24 H :    0.234368
Sum of atomic charges:    1.0000000

--------------------------------
MULLIKEN REDUCED ORBITAL CHARGES
--------------------------------
  0 N s       :     3.406358  s :     3.406358
      pz      :     1.050499  p :     3.733330
      px      :     1.121654
      py      :     1.561177
      dz2     :     0.013141  d :     0.055213
      dxz     :     0.018978
      dyz     :     0.009391
      dx2y2   :     0.006713
      dxy     :     0.006990
      f0      :     0.000637  f :     0.003711
      f+1     :     0.000724
      f-1     :     0.000476
      f+2     :     0.000358
      f-2     :     0.000378
      f+3     :     0.000584
      f-3     :     0.000554
  1 H s       :     0.739936  s :     0.739936
      pz      :     0.021669  p :     0.064517
      px      :     0.019372
      py      :     0.023477
      dz2     :     0.001190  d :     0.005364
      dxz     :     0.001181
      dyz     :     0.000963
      dx2y2   :     0.000944
      dxy     :     0.001085
  2 C s       :     3.163146  s :     3.163146
      pz      :     0.803983  p :     2.806829
      px      :     1.033495
      py      :     0.969351
      dz2     :     0.018728  d :     0.110208
      dxz     :     0.026561
      dyz     :     0.036017
      dx2y2   :     0.009619
      dxy     :     0.019284
      f0      :     0.001947  f :     0.008046
      f+1     :     0.001526
      f-1     :     0.002181
      f+2     :     0.000282
      f-2     :     0.000909
      f+3     :     0.000701
      f-3     :     0.000500
  3 C s       :     3.084239  s :     3.084239
      pz      :     0.682001  p :     2.259618
      px      :     0.764572
      py      :     0.813045
      dz2     :     0.081108  d :     0.258250
      dxz     :     0.056750
      dyz     :     0.055772
      dx2y2   :     0.034446
      dxy     :     0.030175
      f0      :     0.005404  f :     0.025035
      f+1     :     0.003672
      f-1     :     0.005912
      f+2     :     0.003183
      f-2     :     0.003491
      f+3     :     0.001484
      f-3     :     0.001889
  4 H s       :     0.806593  s :     0.806593
      pz      :     0.011037  p :     0.038923
      px      :     0.018830
      py      :     0.009055
      dz2     :     0.000607  d :     0.002211
      dxz     :     0.000508
      dyz     :     0.000221
      dx2y2   :     0.000321
      dxy     :     0.000555
  5 H s       :     0.805622  s :     0.805622
      pz      :     0.007197  p :     0.033005
      px      :     0.010497
      py      :     0.015311
      dz2     :     0.000464  d :     0.002047
      dxz     :     0.000225
      dyz     :     0.000364
      dx2y2   :     0.000509
      dxy     :     0.000486
  6 O s       :     3.809550  s :     3.809550
      pz      :     1.544382  p :     4.599847
      px      :     1.548436
      py      :     1.507029
      dz2     :     0.005795  d :     0.025443
      dxz     :     0.005088
      dyz     :     0.006860
      dx2y2   :     0.004241
      dxy     :     0.003460
      f0      :     0.000297  f :     0.001974
      f+1     :     0.000222
      f-1     :     0.000437
      f+2     :     0.000439
      f-2     :     0.000376
      f+3     :     0.000082
      f-3     :     0.000121
[...]
     53       0.000031   0.543732  -0.001611  -0.064296   0.004694   0.006011
     54      -0.000035   0.393427  -0.000710  -0.003770   0.019710  -0.002179
     55      -0.000075   0.562274  -0.001002  -0.010261   0.015301  -0.001726
     56      -0.000020   0.401704  -0.000724  -0.010543   0.011014  -0.001044
     57      -0.000031  -0.000032   0.000005  -0.000276   0.000059   0.000087
     58       0.000036   0.000047  -0.000014   0.000588  -0.000131  -0.000162
     59      -0.000094  -0.000127  -0.000014  -0.001381   0.000257   0.000144
     60      -0.001182   0.000313   0.000048   0.003514  -0.000665  -0.001412
     61      -0.000174  -0.000502  -0.000028  -0.006184   0.001202   0.002440
     62      -0.000607   0.000264  -0.000034   0.003079  -0.000713  -0.000057
     63      -0.000003   0.001777   0.000032   0.007246  -0.033726  -0.045988
     64       0.000019   0.000911   0.000051  -0.011051  -0.048250   0.060707
     65      -0.000030   0.005029   0.000018   0.065445  -0.034514  -0.006677
     66      -0.000037   0.000302  -0.000112   0.081908   0.124178   0.679581
     67       0.000031   0.000078  -0.000038  -0.083479  -0.124523  -0.700380
     68       0.000004  -0.000179   0.000009   0.000908   0.015102   0.084886
     69       0.000239  -0.018447  -0.000004  -0.196742   0.010554   0.011024
     70       0.000044   0.006999   0.000064   0.147252  -0.021554  -0.002713
     71       0.000552  -0.052127  -0.000030  -0.951890   0.089644   0.077944
     72      -0.000130  -0.001315  -0.000586   0.031132   0.354919  -0.069703
     73      -0.000180  -0.016272  -0.000651   0.084275   0.832715  -0.137520
     74      -0.000183  -0.011689  -0.000211   0.046313   0.367878  -0.067320
                 72         73         74    
      0       0.001335  -0.046038  -0.000099
      1       0.000885  -0.030304   0.000011
      2       0.001444  -0.049134   0.000106
      3      -0.018476   0.627763  -0.000293
      4      -0.012140   0.395593  -0.000626
      5      -0.019499   0.665522  -0.000740
      6       0.000035  -0.000807  -0.000242
      7      -0.000020   0.000361   0.000722
      8      -0.000017   0.001259  -0.000162
      9       0.000031  -0.000003   0.001151
     10      -0.000020  -0.000029  -0.001871
     11       0.000124   0.000073  -0.001171
     12      -0.000194   0.004296   0.000886
     13      -0.000021   0.001021   0.000664
     14      -0.000342   0.008893   0.002160
     15      -0.000108   0.004119  -0.001700
     16      -0.000097   0.002790  -0.001519
     17       0.000095  -0.002670   0.001569
     18      -0.000019  -0.000071   0.000234
     19       0.000020   0.000069  -0.000341
     20      -0.000079  -0.000023   0.001004
     21       0.000050   0.000236   0.000101
     22       0.000073   0.000465   0.000060
     23       0.000108  -0.001207  -0.000051
     24      -0.000938  -0.000070   0.000001
     25       0.000214  -0.000366  -0.000002
     26      -0.000813   0.000112  -0.000010
     27      -0.000097   0.000776  -0.000043
     28      -0.000084   0.000784  -0.000012
     29      -0.000054   0.000484   0.000015
     30      -0.033630  -0.001379  -0.000039
     31      -0.063977  -0.001926  -0.000089
     32      -0.012841  -0.000386   0.000013
     33       0.005646   0.000379  -0.000016
     34      -0.000232   0.000407  -0.000035
     35       0.000362  -0.000408   0.000057
     36       0.001845   0.002222   0.000030
     37       0.009799   0.003022  -0.000023
     38       0.002711   0.001034   0.000002
     39       0.440824   0.012738   0.000637
     40       0.873849   0.025674   0.001206
     41       0.188612   0.005607   0.000069
     42       0.001338   0.000880  -0.000000
     43      -0.001045   0.000511   0.000037
     44      -0.000545   0.000078  -0.000045
     45      -0.000325  -0.000043  -0.000000
     46      -0.000165  -0.000061  -0.000009
     47      -0.000030  -0.000009  -0.000012
     48       0.000951  -0.000351   0.000001
     49       0.000888  -0.000349  -0.000020
     50       0.000042  -0.000127   0.000030
     51       0.000628  -0.000097   0.000058
     52      -0.000077   0.000079   0.000033
     53       0.000307  -0.000137  -0.000004
     54       0.003812   0.000273   0.000024
     55       0.003655  -0.000402   0.000248
     56       0.001663  -0.000058  -0.000005
     57      -0.000045  -0.000017   0.031193
     58       0.000063  -0.000005  -0.052286
     59      -0.000043   0.000036  -0.009048
     60       0.000795  -0.000419  -0.506648
     61      -0.001151   0.000816   0.848415
     62      -0.000095   0.000162   0.140100
     63      -0.000001  -0.000138   0.000217
     64      -0.000488  -0.000181  -0.000200
     65      -0.000229  -0.000348   0.000406
     66      -0.002140  -0.000178  -0.001504
     67       0.002293   0.000080   0.001581
     68      -0.000274  -0.000047   0.000275
     69       0.000239   0.001238  -0.002542
     70      -0.000134  -0.000698   0.002379
     71       0.001856   0.004168  -0.006317
     72       0.001102   0.000832  -0.000229
     73       0.005142   0.003587  -0.000010
     74       0.002255   0.001407  -0.000235


-----------
IR SPECTRUM
-----------

 Mode   freq       eps      Int      T**2         TX        TY        TZ
       cm**-1   L/(mol*cm) km/mol    a.u.
----------------------------------------------------------------------------
  6:     35.99   0.000444    2.24  0.003852  (-0.040651  0.046572  0.005497)
  7:     54.35   0.001784    9.02  0.010245  ( 0.081439 -0.053793  0.026817)
  8:     74.65   0.000279    1.41  0.001165  (-0.024070  0.004469  0.023780)
  9:     84.40   0.000424    2.14  0.001566  ( 0.024362 -0.013507  0.028113)
 10:    110.86   0.005669   28.65  0.015958  ( 0.005596 -0.094470  0.083679)
 11:    125.28   0.001537    7.77  0.003828  (-0.019839  0.016185  0.056320)
 12:    182.96   0.009865   49.85  0.016825  (-0.027506  0.004770 -0.126673)
 13:    207.51   0.000247    1.25  0.000372  ( 0.005117 -0.006010  0.017602)
 14:    256.39   0.001260    6.37  0.001534  ( 0.016418  0.019700 -0.029603)
 15:    266.15   0.003503   17.70  0.004107  (-0.041041  0.047112 -0.014250)
 16:    292.65   0.001669    8.44  0.001780  (-0.028357 -0.027857  0.014138)
 17:    331.74   0.003113   15.73  0.002928  (-0.047766  0.024039  0.008299)
 18:    366.89   0.007138   36.07  0.006071  ( 0.060909 -0.048561  0.001742)
 19:    397.43   0.010286   51.98  0.008076  ( 0.074777 -0.047067 -0.016421)
 20:    440.52   0.001552    7.84  0.001099  ( 0.011526  0.029767  0.008967)
 21:    490.10   0.006085   30.75  0.003874  ( 0.005795  0.007048  0.061572)
 22:    516.83   0.007516   37.98  0.004538  (-0.049187  0.029713  0.035160)
 23:    526.87   0.021234  107.31  0.012577  ( 0.011206  0.105138 -0.037379)
 24:    569.43   0.012253   61.92  0.006715  (-0.034046 -0.012113  0.073548)
 25:    627.70   0.015092   76.27  0.007503  (-0.026650 -0.081614 -0.011481)
 26:    646.12   0.010747   54.31  0.005191  (-0.044360 -0.029536  0.048482)
 27:    674.73   0.013107   66.24  0.006062  ( 0.073781  0.024686 -0.003043)
 28:    703.19   0.000119    0.60  0.000053  (-0.004510  0.002116 -0.005305)
 29:    714.27   0.003349   16.92  0.001463  ( 0.017492 -0.010476 -0.032363)
 30:    812.57   0.001597    8.07  0.000613  (-0.009530  0.013723 -0.018277)
 31:    873.39   0.002711   13.70  0.000969  ( 0.029887 -0.007949  0.003474)
 32:    887.37   0.006332   32.00  0.002227  ( 0.000743  0.004440 -0.046973)
 33:    902.69   0.001799    9.09  0.000622  (-0.013862 -0.010881  0.017642)
 34:    926.70   0.005744   29.03  0.001934  (-0.001385  0.001305 -0.043940)
 35:   1003.16   0.001314    6.64  0.000409  ( 0.015349 -0.009872 -0.008704)
 36:   1023.85   0.000902    4.56  0.000275  ( 0.005856 -0.015046 -0.003765)
 37:   1064.22   0.002198   11.11  0.000645  ( 0.000041 -0.024451  0.006833)
 38:   1073.71   0.001351    6.83  0.000393  ( 0.011024 -0.015977 -0.003973)
 39:   1126.85   0.000872    4.41  0.000241  ( 0.004896  0.014373  0.003297)
 40:   1137.49   0.005913   29.88  0.001622  (-0.016165  0.027704 -0.024360)
 41:   1161.26   0.003363   17.00  0.000904  ( 0.008803 -0.013771 -0.025231)
 42:   1209.47   0.042272  213.62  0.010907  ( 0.028975 -0.028099 -0.096321)
 43:   1243.76   0.004607   23.28  0.001156  (-0.027411 -0.016601  0.011358)
 44:   1299.83   0.005685   28.73  0.001365  (-0.026505  0.025717  0.000952)
 45:   1303.28   0.004971   25.12  0.001190  (-0.028695  0.017865 -0.006903)
 46:   1319.90   0.006213   31.40  0.001469  (-0.018422  0.000680  0.033603)
 47:   1348.01   0.001107    5.59  0.000256  (-0.007353  0.004182 -0.013588)
 48:   1351.61   0.006949   35.12  0.001604  (-0.012038  0.006596  0.037630)
 49:   1386.19   0.000635    3.21  0.000143  ( 0.000820 -0.010072  0.006397)
 50:   1428.09   0.001113    5.62  0.000243  ( 0.003566 -0.015181 -0.000074)
 51:   1448.60   0.006498   32.84  0.001400  (-0.022282  0.029674 -0.004776)
 52:   1470.62   0.017517   88.52  0.003717  (-0.005737  0.015255  0.058749)
 53:   1490.10   0.004443   22.45  0.000930  (-0.010153 -0.013254 -0.025528)
 54:   1492.49   0.005177   26.16  0.001082  (-0.018170 -0.025583  0.009887)
 55:   1516.84   0.040600  205.18  0.008353  ( 0.091352 -0.000776 -0.002669)
 56:   1574.82   0.024613  124.39  0.004877  (-0.030519 -0.043737  0.045089)
 57:   1593.18   0.040060  202.45  0.007847  (-0.086151  0.015110  0.014013)
 58:   1613.95   0.005223   26.40  0.001010  (-0.001611 -0.031645 -0.002434)
 59:   1682.88   0.020512  103.66  0.003804  ( 0.036768 -0.036062  0.033931)
 60:   1778.76   0.040681  205.59  0.007137  ( 0.028556  0.055756 -0.056682)
 61:   1789.35   0.103436  522.72  0.018039  (-0.077677  0.009618 -0.109147)
 62:   1806.60   0.048181  243.49  0.008323  ( 0.069710  0.058620  0.005173)
 63:   3111.97   0.001199    6.06  0.000120  (-0.009083  0.003522  0.005030)
 64:   3123.91   0.000183    0.93  0.000018  (-0.003157 -0.000040  0.002886)
 65:   3139.42   0.000435    2.20  0.000043  ( 0.004166 -0.005043 -0.000671)
 66:   3167.31   0.000385    1.95  0.000038  (-0.005721 -0.002245 -0.000454)
 67:   3191.66   0.000138    0.70  0.000013  (-0.002029  0.000282 -0.003042)
 68:   3205.95   0.000005    0.02  0.000000  (-0.000013  0.000523  0.000442)
 69:   3239.95   0.111717  564.57  0.010760  (-0.027034  0.034003 -0.094198)
 70:   3382.30   0.020243  102.30  0.001868  ( 0.011217  0.030496  0.028493)
 71:   3559.13   0.026814  135.51  0.002351  ( 0.032094 -0.035284  0.008723)
 72:   3651.31   0.012134   61.32  0.001037  ( 0.022859  0.022595  0.001994)
 73:   3668.75   0.012528   63.31  0.001066  ( 0.022118  0.013564  0.019809)
 74:   3803.27   0.023718  119.86  0.001946  (-0.019592  0.031321  0.024109)

* The epsilon (eps) is given for a Dirac delta lineshape.
** The dipole moment derivative (T) already includes vibrational overlap.

The first frequency considered to be a vibration is 6
The total number of vibrations considered is 69


--------------------------
THERMOCHEMISTRY AT 298.15K
--------------------------

Temperature         ... 298.15 K
Pressure            ... 1.00 atm
Total Mass          ... 190.18 AMU

Throughout the following assumptions are being made:
  (1) The electronic state is orbitally nondegenerate
  (2) There are no thermally accessible electronically excited states
  (3) Hindered rotations indicated by low frequency modes are not
      treated as such but are treated as vibrations and this may
      cause some error
  (4) All equations used are the standard statistical mechanics
      equations for an ideal gas
  (5) All vibrations are strictly harmonic

freq.      35.99  E(vib)   ...       0.54 
freq.      54.35  E(vib)   ...       0.52 
freq.      74.65  E(vib)   ...       0.49 
freq.      84.40  E(vib)   ...       0.48 
freq.     110.86  E(vib)   ...       0.45 
freq.     125.28  E(vib)   ...       0.43 
freq.     182.96  E(vib)   ...       0.37 
freq.     207.51  E(vib)   ...       0.34 
freq.     256.39  E(vib)   ...       0.30 
freq.     266.15  E(vib)   ...       0.29 
freq.     292.65  E(vib)   ...       0.27 
freq.     331.74  E(vib)   ...       0.24 
freq.     366.89  E(vib)   ...       0.22 
freq.     397.43  E(vib)   ...       0.20 
freq.     440.52  E(vib)   ...       0.17 
freq.     490.10  E(vib)   ...       0.15 
freq.     516.83  E(vib)   ...       0.13 
freq.     526.87  E(vib)   ...       0.13 
freq.     569.43  E(vib)   ...       0.11 
freq.     627.70  E(vib)   ...       0.09 
freq.     646.12  E(vib)   ...       0.09 
freq.     674.73  E(vib)   ...       0.08 
freq.     703.19  E(vib)   ...       0.07 
freq.     714.27  E(vib)   ...       0.07 
freq.     812.57  E(vib)   ...       0.05 
freq.     873.39  E(vib)   ...       0.04 
freq.     887.37  E(vib)   ...       0.04 
freq.     902.69  E(vib)   ...       0.03 
freq.     926.70  E(vib)   ...       0.03 
freq.    1003.16  E(vib)   ...       0.02 
freq.    1023.85  E(vib)   ...       0.02 
freq.    1064.22  E(vib)   ...       0.02 
freq.    1073.71  E(vib)   ...       0.02 
freq.    1126.85  E(vib)   ...       0.01 
freq.    1137.49  E(vib)   ...       0.01 
freq.    1161.26  E(vib)   ...       0.01 
freq.    1209.47  E(vib)   ...       0.01 
freq.    1243.76  E(vib)   ...       0.01 
freq.    1299.83  E(vib)   ...       0.01 
freq.    1303.28  E(vib)   ...       0.01 
freq.    1319.90  E(vib)   ...       0.01 
freq.    1348.01  E(vib)   ...       0.01 
freq.    1351.61  E(vib)   ...       0.01 
freq.    1386.19  E(vib)   ...       0.00 
freq.    1428.09  E(vib)   ...       0.00 
freq.    1448.60  E(vib)   ...       0.00 
freq.    1470.62  E(vib)   ...       0.00 
freq.    1490.10  E(vib)   ...       0.00 
freq.    1492.49  E(vib)   ...       0.00 
freq.    1516.84  E(vib)   ...       0.00 
freq.    1574.82  E(vib)   ...       0.00 
freq.    1593.18  E(vib)   ...       0.00 
freq.    1613.95  E(vib)   ...       0.00 
freq.    1682.88  E(vib)   ...       0.00 
freq.    1778.76  E(vib)   ...       0.00 
freq.    1789.35  E(vib)   ...       0.00 
freq.    1806.60  E(vib)   ...       0.00 
freq.    3111.97  E(vib)   ...       0.00 
freq.    3123.91  E(vib)   ...       0.00 
freq.    3139.42  E(vib)   ...       0.00 
freq.    3167.31  E(vib)   ...       0.00 
freq.    3191.66  E(vib)   ...       0.00 
freq.    3205.95  E(vib)   ...       0.00 
freq.    3239.95  E(vib)   ...       0.00 
freq.    3382.30  E(vib)   ...       0.00 
freq.    3559.13  E(vib)   ...       0.00 
freq.    3651.31  E(vib)   ...       0.00 
freq.    3668.75  E(vib)   ...       0.00 
freq.    3803.27  E(vib)   ...       0.00 

------------
INNER ENERGY
------------

The inner energy is: U= E(el) + E(ZPE) + E(vib) + E(rot) + E(trans)
    E(el)   - is the total energy from the electronic structure calculation
              = E(kin-el) + E(nuc-el) + E(el-el) + E(nuc-nuc)
    E(ZPE)  - the the zero temperature vibrational energy from the frequency calculation
    E(vib)  - the the finite temperature correction to E(ZPE) due to population
              of excited vibrational states
    E(rot)  - is the rotational thermal energy
    E(trans)- is the translational thermal energy

Summary of contributions to the inner energy U:
Electronic energy                ...   -701.35501613 Eh
Zero point energy                ...      0.20978169 Eh     131.64 kcal/mol
Thermal vibrational correction   ...      0.01052951 Eh       6.61 kcal/mol
Thermal rotational correction    ...      0.00141627 Eh       0.89 kcal/mol
Thermal translational correction ...      0.00141627 Eh       0.89 kcal/mol
-----------------------------------------------------------------------
Total thermal energy                   -701.13187239 Eh


Summary of corrections to the electronic energy:
(perhaps to be used in another calculation)
Total thermal correction                  0.01336206 Eh       8.38 kcal/mol
Non-thermal (ZPE) correction              0.20978169 Eh     131.64 kcal/mol
-----------------------------------------------------------------------
Total correction                          0.22314375 Eh     140.02 kcal/mol


--------
ENTHALPY
--------

The enthalpy is H = U + kB*T
                kB is Boltzmann's constant
Total free energy                 ...   -701.13187239 Eh 
Thermal Enthalpy correction       ...      0.00094421 Eh       0.59 kcal/mol
-----------------------------------------------------------------------
Total Enthalpy                    ...   -701.13092818 Eh


Note: Only C1 symmetry has been detected, increase convergence thresholds 
      if your molecule has a higher symmetry. Symmetry factor of 1.0 is   
      used for the rotational entropy correction. 
 

Note: Rotational entropy computed according to Herzberg 
Infrared and Raman Spectra, Chapter V,1, Van Nostrand Reinhold, 1945 
Point Group:  C1, Symmetry Number:   1  
Rotational constants in cm-1:     0.032797     0.023563     0.016348 

Vibrational entropy computed according to the QRRHO of S. Grimme
Chem.Eur.J. 2012 18 9955


-------
ENTROPY
-------

The entropy contributions are T*S = T*(S(el)+S(vib)+S(rot)+S(trans))
     S(el)   - electronic entropy
     S(vib)  - vibrational entropy
     S(rot)  - rotational entropy
     S(trans)- translational entropy
The entropies will be listed as multiplied by the temperature to get
units of energy

Electronic entropy                ...      0.00000000 Eh      0.00 kcal/mol
Vibrational entropy               ...      0.01854710 Eh     11.64 kcal/mol
Rotational entropy                ...      0.01483560 Eh      9.31 kcal/mol
Translational entropy             ...      0.01978162 Eh     12.41 kcal/mol
-----------------------------------------------------------------------
Final entropy term                ...      0.05316431 Eh     33.36 kcal/mol

In case the symmetry of your molecule has not been determined correctly
or in case you have a reason to use a different symmetry number we print 
out the resulting rotational entropy values for sn=1,12 :
 --------------------------------------------------------
|  sn= 1 | S(rot)=       0.01483560 Eh      9.31 kcal/mol|
|  sn= 2 | S(rot)=       0.01418114 Eh      8.90 kcal/mol|
|  sn= 3 | S(rot)=       0.01379831 Eh      8.66 kcal/mol|
|  sn= 4 | S(rot)=       0.01352668 Eh      8.49 kcal/mol|
|  sn= 5 | S(rot)=       0.01331600 Eh      8.36 kcal/mol|
|  sn= 6 | S(rot)=       0.01314385 Eh      8.25 kcal/mol|
|  sn= 7 | S(rot)=       0.01299831 Eh      8.16 kcal/mol|
|  sn= 8 | S(rot)=       0.01287223 Eh      8.08 kcal/mol|
|  sn= 9 | S(rot)=       0.01276102 Eh      8.01 kcal/mol|
|  sn=10 | S(rot)=       0.01266154 Eh      7.95 kcal/mol|
|  sn=11 | S(rot)=       0.01257155 Eh      7.89 kcal/mol|
|  sn=12 | S(rot)=       0.01248939 Eh      7.84 kcal/mol|
 --------------------------------------------------------


-------------------
GIBBS FREE ENERGY
-------------------

The Gibbs free energy is G = H - T*S

Total enthalpy                    ...   -701.13092818 Eh 
Total entropy correction          ...     -0.05316431 Eh    -33.36 kcal/mol
-----------------------------------------------------------------------
Final Gibbs free energy         ...   -701.18409248 Eh

For completeness - the Gibbs free energy minus the electronic energy
G-E(el)                           ...      0.17092365 Eh    107.26 kcal/mol


Timings for individual modules:

Sum of individual times         ...     9020.050 sec (= 150.334 min)
GTO integral calculation        ...       33.077 sec (=   0.551 min)   0.4 %
SCF iterations                  ...     2847.125 sec (=  47.452 min)  31.6 %
SCF Gradient evaluation         ...      566.680 sec (=   9.445 min)   6.3 %
Geometry relaxation             ...        1.485 sec (=   0.025 min)   0.0 %
Analytical frequency calculation...     5065.614 sec (=  84.427 min)  56.2 %
CHELPG charge generation        ...      506.069 sec (=   8.434 min)   5.6 %
                             ****ORCA TERMINATED NORMALLY****
TOTAL RUN TIME: 0 days 2 hours 32 minutes 24 seconds 960 msec
