
Lmod is automatically replacing "intel/2020.1.217" with "gcc/10.3.0".


Due to MODULEPATH changes, the following have been reloaded:
  1) blis/0.8.1     2) flexiblas/3.0.4

The following have been reloaded with a version change:
  1) gcccore/.9.3.0 => gcccore/.10.3.0        3) openmpi/4.0.3 => openmpi/4.1.1
  2) libfabric/1.10.1 => libfabric/1.12.1     4) ucx/1.8.0 => ucx/1.9.0

To execute ORCA, run: 
   ${EBROOTORCA}/orca orca.inp > orca.out

                                 *****************
                                 * O   R   C   A *
                                 *****************

                                            #,                                       
                                            ###                                      
                                            ####                                     
                                            #####                                    
                                            ######                                   
                                           ########,                                 
                                     ,,################,,,,,                         
                               ,,#################################,,                 
                          ,,##########################################,,             
                       ,#########################################, ''#####,          
                    ,#############################################,,   '####,        
                  ,##################################################,,,,####,       
                ,###########''''           ''''###############################       
              ,#####''   ,,,,##########,,,,          '''####'''          '####       
            ,##' ,,,,###########################,,,                        '##       
           ' ,,###''''                  '''############,,,                           
         ,,##''                                '''############,,,,        ,,,,,,###''
      ,#''                                            '''#######################'''  
     '                                                          ''''####''''         
             ,#######,   #######,   ,#######,      ##                                
            ,#'     '#,  ##    ##  ,#'     '#,    #''#        ######   ,####,        
            ##       ##  ##   ,#'  ##            #'  '#       #        #'  '#        
            ##       ##  #######   ##           ,######,      #####,   #    #        
            '#,     ,#'  ##    ##  '#,     ,#' ,#      #,         ##   #,  ,#        
             '#######'   ##     ##  '#######'  #'      '#     #####' # '####'        



                  #######################################################
                  #                        -***-                        #
                  #          Department of theory and spectroscopy      #
                  #    Directorship and core code : Frank Neese         #
                  #        Max Planck Institute fuer Kohlenforschung    #
                  #                Kaiser Wilhelm Platz 1               #
                  #                 D-45470 Muelheim/Ruhr               #
                  #                      Germany                        #
                  #                                                     #
                  #                  All rights reserved                #
                  #                        -***-                        #
                  #######################################################


                         Program Version 5.0.2 -  RELEASE  -


 With contributions from (in alphabetic order):
   Daniel Aravena         : Magnetic Suceptibility
   Michael Atanasov       : Ab Initio Ligand Field Theory (pilot matlab implementation)
   Alexander A. Auer      : GIAO ZORA, VPT2 properties, NMR spectrum
   Ute Becker             : Parallelization
   Giovanni Bistoni       : ED, misc. LED, open-shell LED, HFLD
   Martin Brehm           : Molecular dynamics
   Dmytro Bykov           : SCF Hessian
   Vijay G. Chilkuri      : MRCI spin determinant printing, contributions to CSF-ICE
   Dipayan Datta          : RHF DLPNO-CCSD density
   Achintya Kumar Dutta   : EOM-CC, STEOM-CC
   Dmitry Ganyushin       : Spin-Orbit,Spin-Spin,Magnetic field MRCI
   Miquel Garcia          : C-PCM and meta-GGA Hessian, CC/C-PCM, Gaussian charge scheme
   Yang Guo               : DLPNO-NEVPT2, F12-NEVPT2, CIM, IAO-localization
   Andreas Hansen         : Spin unrestricted coupled pair/coupled cluster methods
   Benjamin Helmich-Paris : MC-RPA, TRAH-SCF, COSX integrals
   Lee Huntington         : MR-EOM, pCC
   Robert Izsak           : Overlap fitted RIJCOSX, COSX-SCS-MP3, EOM
   Marcus Kettner         : VPT2
   Christian Kollmar      : KDIIS, OOCD, Brueckner-CCSD(T), CCSD density, CASPT2, CASPT2-K
   Simone Kossmann        : Meta GGA functionals, TD-DFT gradient, OOMP2, MP2 Hessian
   Martin Krupicka        : Initial AUTO-CI
   Lucas Lang             : DCDCAS
   Marvin Lechner         : AUTO-CI (C++ implementation), FIC-MRCC
   Dagmar Lenk            : GEPOL surface, SMD
   Dimitrios Liakos       : Extrapolation schemes; Compound Job, initial MDCI parallelization
   Dimitrios Manganas     : Further ROCIS development; embedding schemes
   Dimitrios Pantazis     : SARC Basis sets
   Anastasios Papadopoulos: AUTO-CI, single reference methods and gradients
   Taras Petrenko         : DFT Hessian,TD-DFT gradient, ASA, ECA, R-Raman, ABS, FL, XAS/XES, NRVS
   Peter Pinski           : DLPNO-MP2, DLPNO-MP2 Gradient
   Christoph Reimann      : Effective Core Potentials
   Marius Retegan         : Local ZFS, SOC
   Christoph Riplinger    : Optimizer, TS searches, QM/MM, DLPNO-CCSD(T), (RO)-DLPNO pert. Triples
   Tobias Risthaus        : Range-separated hybrids, TD-DFT gradient, RPA, STAB
   Michael Roemelt        : Original ROCIS implementation
   Masaaki Saitow         : Open-shell DLPNO-CCSD energy and density
   Barbara Sandhoefer     : DKH picture change effects
   Avijit Sen             : IP-ROCIS
   Kantharuban Sivalingam : CASSCF convergence, NEVPT2, FIC-MRCI
   Bernardo de Souza      : ESD, SOC TD-DFT
   Georgi Stoychev        : AutoAux, RI-MP2 NMR, DLPNO-MP2 response
   Willem Van den Heuvel  : Paramagnetic NMR
   Boris Wezisla          : Elementary symmetry handling
   Frank Wennmohs         : Technical directorship


 We gratefully acknowledge several colleagues who have allowed us to
 interface, adapt or use parts of their codes:
   Stefan Grimme, W. Hujo, H. Kruse, P. Pracht,  : VdW corrections, initial TS optimization,
                  C. Bannwarth, S. Ehlert          DFT functionals, gCP, sTDA/sTD-DF
   Ed Valeev, F. Pavosevic, A. Kumar             : LibInt (2-el integral package), F12 methods
   Garnet Chan, S. Sharma, J. Yang, R. Olivares  : DMRG
   Ulf Ekstrom                                   : XCFun DFT Library
   Mihaly Kallay                                 : mrcc  (arbitrary order and MRCC methods)
   Jiri Pittner, Ondrej Demel                    : Mk-CCSD
   Frank Weinhold                                : gennbo (NPA and NBO analysis)
   Christopher J. Cramer and Donald G. Truhlar   : smd solvation model
   Lars Goerigk                                  : TD-DFT with DH, B97 family of functionals
   V. Asgeirsson, H. Jonsson                     : NEB implementation
   FAccTs GmbH                                   : IRC, NEB, NEB-TS, DLPNO-Multilevel, CI-OPT
                                                   MM, QMMM, 2- and 3-layer-ONIOM, Crystal-QMMM,
                                                   LR-CPCM, SF, NACMEs, symmetry and pop. for TD-DFT,
                                                   nearIR, NL-DFT gradient (VV10), updates on ESD,
                                                   ML-optimized integration grids
   S Lehtola, MJT Oliveira, MAL Marques          : LibXC Library
   Liviu Ungur et al                             : ANISO software


 Your calculation uses the libint2 library for the computation of 2-el integrals
 For citations please refer to: http://libint.valeyev.net

 Your ORCA version has been built with support for libXC version: 5.1.0
 For citations please refer to: https://tddft.org/programs/libxc/

 This ORCA versions uses:
   CBLAS   interface :  Fast vector & matrix operations
   LAPACKE interface :  Fast linear algebra routines
   SCALAPACK package :  Parallel linear algebra routines
   Shared memory     :  Shared parallel matrices
   BLAS/LAPACK       :  OpenBLAS 0.3.15  USE64BITINT DYNAMIC_ARCH NO_AFFINITY Zen SINGLE_THREADED
        Core in use  :  Zen
   Copyright (c) 2011-2014, The OpenBLAS Project


Your calculation utilizes the atom-pairwise dispersion correction
with the Becke-Johnson damping scheme (D3BJ)
Cite in your paper:
S.Grimme, S.Ehrlich, L.Goerigk, J Comput Chem, (2011), 32, 1456–1465 
S.Grimme, J.Antony, S.Ehrlich and H.Krieg, J.Chem.Phys., 132, (2010), 154104 
   

================================================================================

----- Orbital basis set information -----
Your calculation utilizes the basis: def2-TZVPP
   F. Weigend and R. Ahlrichs, Phys. Chem. Chem. Phys. 7, 3297 (2005).

----- AuxJ basis set information -----
Your calculation utilizes the auxiliary basis: def2/J
   F. Weigend, Phys. Chem. Chem. Phys. 8, 1057 (2006).

================================================================================
                                        WARNINGS
                       Please study these warnings very carefully!
================================================================================


WARNING: Geometry Optimization
  ===> : Switching off AutoStart
         For restart on a previous wavefunction, please use MOREAD

INFO   : the flag for use of the SHARK integral package has been found!

================================================================================
                                       INPUT FILE
================================================================================
NAME = GGG-H_tt_008_OptFreq.inp
|  1> # GGG-H_tt_008 (old 039)
|  2> ! wB97X-D3BJ Opt Freq def2-TZVPP def2/J RIJCOSX VeryTightSCF
|  3> ! PAL8 defgrid3 VeryTightOpt
|  4> 
|  5> %maxcore 4096
|  6> 
|  7> %geom
|  8>   MaxIter 300
|  9>   # MaxStep 0.1
| 10>   Calc_Hess true
| 11>   Recalc_Hess 10
| 12> end
| 13> 
| 14> %chelpg
| 15>   grid 0.1
| 16>   rmax 3.0
| 17> end
| 18> 
| 19> * xyz 1 1 
| 20>  N   +0.143836   +2.388992   -2.001690
| 21>  H   +0.947666   +2.582929   -1.402817
| 22>  C   +0.143699   +2.895644   -3.379827
| 23>  C   -0.683658   +4.194763   -3.556789
| 24>  H   +1.178833   +3.112456   -3.673519
| 25>  H   -0.271151   +2.109080   -4.036155
| 26>  O   -0.181485   +5.230313   -3.921132
| 27>  C   -0.944852   +1.782414   -1.470627
| 28>  C   -0.779739   +1.250073   -0.034785
| 29>  O   -2.004116   +1.622324   -2.087629
| 30>  N   +0.000000   +0.000000   +0.000000
| 31>  H   -1.780433   +1.040952   +0.364591
| 32>  H   -0.268259   +1.985700   +0.606798
| 33>  H   -0.508111   -0.883064   -0.066904
| 34>  C   +1.332752   +0.000000   +0.000000
| 35>  C   +2.078496   -1.360236   +0.021795
| 36>  O   +2.044967   +1.023857   +0.000000
| 37>  H   +1.899774   -1.940144   -0.896892
| 38>  H   +1.807441   -1.973087   +0.894816
| 39>  O   -1.993155   +4.071209   -3.280464
| 40>  H   -2.201193   +3.137657   -3.009405
| 41>  N   +3.521118   -0.953035   +0.098806
| 42>  H   +4.093774   -1.283184   -0.691582
| 43>  H   +3.402068   +0.132755   +0.063762
| 44>  H   +3.985535   -1.230786   +0.975946
| 45> *
| 46> 
| 47>                          ****END OF INPUT****
================================================================================

                       *****************************
                       * Geometry Optimization Run *
                       *****************************

Geometry optimization settings:
Update method            Update   .... BFGS
Choice of coordinates    CoordSys .... Z-matrix Internals
Initial Hessian          InHess   .... Almoef's Model

Convergence Tolerances:
Energy Change            TolE     ....  2.0000e-07 Eh
Max. Gradient            TolMAXG  ....  3.0000e-05 Eh/bohr
RMS Gradient             TolRMSG  ....  8.0000e-06 Eh/bohr
Max. Displacement        TolMAXD  ....  2.0000e-04 bohr
RMS Displacement         TolRMSD  ....  1.0000e-04 bohr
Strict Convergence                ....  False
------------------------------------------------------------------------------
                        ORCA OPTIMIZATION COORDINATE SETUP
------------------------------------------------------------------------------

The optimization will be done in new redundant internal coordinates
Making redundant internal coordinates   ...  (new redundants) done
Evaluating the initial hessian          ...  (Is done on the fly) done
Evaluating the coordinates              ...  done
Calculating the B-matrix                .... done
Calculating the G-matrix                .... done
Diagonalizing the G-matrix              .... done
Small eigenvalue found = 4.871e-03
Small eigenvalue found = 1.390e-02
Small eigenvalue found = 1.927e-02
Small eigenvalue found = 2.658e-02
The first mode is                       ....   44
The number of degrees of freedom        ....   69

    -----------------------------------------------------------------
                    Redundant Internal Coordinates


    -----------------------------------------------------------------
         Definition                    Initial Value    d2E/dq (diagonal element)
    -----------------------------------------------------------------
      1. B(H   1,N   0)                  1.0210         0.000000   
      2. B(C   2,N   0)                  1.4683         0.000000   
      3. B(C   3,C   2)                  1.5503         0.000000   
      4. B(H   4,C   2)                  1.0976         0.000000   
      5. B(H   5,C   2)                  1.1052         0.000000   
      6. B(O   6,C   3)                  1.2072         0.000000   
      7. B(C   7,N   0)                  1.3547         0.000000   
      8. B(C   8,C   7)                  1.5402         0.000000   
      9. B(O   9,C   7)                  1.2363         0.000000   
     10. B(N  10,C   8)                  1.4737         0.000000   
     11. B(H  11,C   8)                  1.0976         0.000000   
     12. B(H  12,C   8)                  1.1020         0.000000   
     13. B(H  13,N  10)                  1.0210         0.000000   
     14. B(C  14,N  10)                  1.3328         0.000000   
     15. B(C  15,C  14)                  1.5514         0.000000   
     16. B(O  16,C  14)                  1.2472         0.000000   
     17. B(H  17,C  15)                  1.1010         0.000000   
     18. B(H  18,C  15)                  1.1006         0.000000   
     19. B(O  19,C   3)                  1.3440         0.000000   
     20. B(H  20,O  19)                  0.9941         0.000000   
     21. B(N  21,C  15)                  1.5010         0.000000   
     22. B(H  22,N  21)                  1.0304         0.000000   
     23. B(H  23,N  21)                  1.0929         0.000000   
     24. B(H  24,N  21)                  1.0306         0.000000   
     25. A(H   1,N   0,C   2)          119.0171         0.000000   
     26. A(C   2,N   0,C   7)          121.4911         0.000000   
     27. A(H   1,N   0,C   7)          119.1976         0.000000   
     28. A(C   3,C   2,H   5)          109.1630         0.000000   
     29. A(C   3,C   2,H   4)          107.8917         0.000000   
     30. A(N   0,C   2,H   4)          108.6151         0.000000   
     31. A(N   0,C   2,C   3)          113.3487         0.000000   
     32. A(N   0,C   2,H   5)          108.1696         0.000000   
     33. A(H   4,C   2,H   5)          109.6129         0.000000   
     34. A(O   6,C   3,O  19)          123.1074         0.000000   
     35. A(C   2,C   3,O  19)          114.8001         0.000000   
     36. A(C   2,C   3,O   6)          122.0916         0.000000   
     37. A(C   8,C   7,O   9)          120.8209         0.000000   
     38. A(N   0,C   7,O   9)          123.4295         0.000000   
     39. A(N   0,C   7,C   8)          115.7252         0.000000   
     40. A(C   7,C   8,H  11)          107.8985         0.000000   
     41. A(C   7,C   8,N  10)          111.8325         0.000000   
     42. A(H  11,C   8,H  12)          109.7867         0.000000   
     43. A(N  10,C   8,H  12)          107.8736         0.000000   
     44. A(C   7,C   8,H  12)          111.2097         0.000000   
     45. A(N  10,C   8,H  11)          108.1914         0.000000   
     46. A(H  13,N  10,C  14)          119.8451         0.000000   
     47. A(C   8,N  10,C  14)          121.9441         0.000000   
     48. A(C   8,N  10,H  13)          117.9553         0.000000   
     49. A(C  15,C  14,O  16)          116.4404         0.000000   
     50. A(N  10,C  14,O  16)          124.8232         0.000000   
     51. A(N  10,C  14,C  15)          118.7305         0.000000   
     52. A(H  17,C  15,H  18)          109.1849         0.000000   
     53. A(C  14,C  15,H  18)          112.3953         0.000000   
     54. A(C  14,C  15,H  17)          111.8423         0.000000   
     55. A(H  18,C  15,N  21)          110.3092         0.000000   
     56. A(H  17,C  15,N  21)          109.9816         0.000000   
     57. A(C  14,C  15,N  21)          102.9948         0.000000   
     58. A(C   3,O  19,H  20)          110.2598         0.000000   
     59. A(H  23,N  21,H  24)          110.1287         0.000000   
     60. A(H  22,N  21,H  24)          108.4247         0.000000   
     61. A(C  15,N  21,H  24)          113.8067         0.000000   
     62. A(H  22,N  21,H  23)          110.7501         0.000000   
     63. A(C  15,N  21,H  23)           99.3922         0.000000   
     64. A(C  15,N  21,H  22)          114.0725         0.000000   
     65. D(H   4,C   2,N   0,C   7)   -166.1113         0.000000   
     66. D(H   5,C   2,N   0,C   7)    -47.2083         0.000000   
     67. D(H   5,C   2,N   0,H   1)    139.0732         0.000000   
     68. D(H   4,C   2,N   0,H   1)     20.1701         0.000000   
     69. D(C   3,C   2,N   0,H   1)    -99.7304         0.000000   
     70. D(C   3,C   2,N   0,C   7)     73.9882         0.000000   
     71. D(O   6,C   3,C   2,H   4)     -2.0187         0.000000   
     72. D(O  19,C   3,C   2,H   5)     58.6019         0.000000   
     73. D(O  19,C   3,C   2,H   4)    177.6539         0.000000   
     74. D(O   6,C   3,C   2,H   5)   -121.0706         0.000000   
     75. D(O  19,C   3,C   2,N   0)    -62.0341         0.000000   
     76. D(O   6,C   3,C   2,N   0)    118.2933         0.000000   
     77. D(O   9,C   7,N   0,H   1)    173.0562         0.000000   
     78. D(C   8,C   7,N   0,C   2)    177.5592         0.000000   
     79. D(C   8,C   7,N   0,H   1)     -8.7333         0.000000   
     80. D(O   9,C   7,N   0,C   2)     -0.6513         0.000000   
     81. D(H  12,C   8,C   7,O   9)   -137.4017         0.000000   
     82. D(H  12,C   8,C   7,N   0)     44.3374         0.000000   
     83. D(H  11,C   8,C   7,O   9)    -16.9431         0.000000   
     84. D(N  10,C   8,C   7,O   9)    101.9259         0.000000   
     85. D(N  10,C   8,C   7,N   0)    -76.3351         0.000000   
     86. D(H  11,C   8,C   7,N   0)    164.7959         0.000000   
     87. D(C  14,N  10,C   8,H  12)    -39.1240         0.000000   
     88. D(C  14,N  10,C   8,H  11)   -157.8337         0.000000   
     89. D(C  14,N  10,C   8,C   7)     83.4710         0.000000   
     90. D(H  13,N  10,C   8,H  12)    146.6953         0.000000   
     91. D(H  13,N  10,C   8,H  11)     27.9855         0.000000   
     92. D(H  13,N  10,C   8,C   7)    -90.7097         0.000000   
     93. D(O  16,C  14,N  10,C   8)      1.5939         0.000000   
     94. D(C  15,C  14,N  10,H  13)     -5.2506         0.000000   
     95. D(C  15,C  14,N  10,C   8)   -179.3240         0.000000   
     96. D(O  16,C  14,N  10,H  13)    175.6673         0.000000   
     97. D(N  21,C  15,C  14,O  16)      2.4323         0.000000   
     98. D(N  21,C  15,C  14,N  10)   -176.7261         0.000000   
     99. D(H  18,C  15,C  14,O  16)    121.1414         0.000000   
    100. D(H  18,C  15,C  14,N  10)    -58.0170         0.000000   
    101. D(H  17,C  15,C  14,O  16)   -115.6230         0.000000   
    102. D(H  17,C  15,C  14,N  10)     65.2186         0.000000   
    103. D(H  20,O  19,C   3,O   6)    179.3095         0.000000   
    104. D(H  20,O  19,C   3,C   2)     -0.3593         0.000000   
    105. D(H  24,N  21,C  15,H  18)     -5.3440         0.000000   
    106. D(H  24,N  21,C  15,H  17)   -125.8357         0.000000   
    107. D(H  24,N  21,C  15,C  14)    114.8106         0.000000   
    108. D(H  23,N  21,C  15,H  18)   -122.3589         0.000000   
    109. D(H  23,N  21,C  15,H  17)    117.1494         0.000000   
    110. D(H  23,N  21,C  15,C  14)     -2.2044         0.000000   
    111. D(H  22,N  21,C  15,H  18)    119.7877         0.000000   
    112. D(H  22,N  21,C  15,H  17)     -0.7040         0.000000   
    113. D(H  22,N  21,C  15,C  14)   -120.0577         0.000000   
    -----------------------------------------------------------------

Number of atoms                         .... 25
Number of degrees of freedom            .... 113

         *************************************************************
         *                GEOMETRY OPTIMIZATION CYCLE   1            *
         *************************************************************
---------------------------------
CARTESIAN COORDINATES (ANGSTROEM)
---------------------------------
  N      0.143836    2.388992   -2.001690
  H      0.947666    2.582929   -1.402817
  C      0.143699    2.895644   -3.379827
  C     -0.683658    4.194763   -3.556789
  H      1.178833    3.112456   -3.673519
  H     -0.271151    2.109080   -4.036155
  O     -0.181485    5.230313   -3.921132
  C     -0.944852    1.782414   -1.470627
  C     -0.779739    1.250073   -0.034785
  O     -2.004116    1.622324   -2.087629
  N      0.000000    0.000000    0.000000
  H     -1.780433    1.040952    0.364591
  H     -0.268259    1.985700    0.606798
  H     -0.508111   -0.883064   -0.066904
  C      1.332752    0.000000    0.000000
  C      2.078496   -1.360236    0.021795
  O      2.044967    1.023857    0.000000
  H      1.899774   -1.940144   -0.896892
  H      1.807441   -1.973087    0.894816
  O     -1.993155    4.071209   -3.280464
  H     -2.201193    3.137657   -3.009405
  N      3.521118   -0.953035    0.098806
  H      4.093774   -1.283184   -0.691582
  H      3.402068    0.132755    0.063762
  H      3.985535   -1.230786    0.975946

----------------------------
CARTESIAN COORDINATES (A.U.)
----------------------------
  NO LB      ZA    FRAG     MASS         X           Y           Z
   0 N     7.0000    0    14.007    0.271811    4.514541   -3.782646
   1 H     1.0000    0     1.008    1.790829    4.881028   -2.650940
   2 C     6.0000    0    12.011    0.271552    5.471974   -6.386947
   3 C     6.0000    0    12.011   -1.291926    7.926953   -6.721357
   4 H     1.0000    0     1.008    2.227672    5.881689   -6.941945
   5 H     1.0000    0     1.008   -0.512401    3.985584   -7.627228
   6 O     8.0000    0    15.999   -0.342957    9.883859   -7.409866
   7 C     6.0000    0    12.011   -1.785512    3.368274   -2.779082
   8 C     6.0000    0    12.011   -1.473493    2.362296   -0.065734
   9 O     8.0000    0    15.999   -3.787230    3.065748   -3.945047
  10 N     7.0000    0    14.007    0.000000    0.000000    0.000000
  11 H     1.0000    0     1.008   -3.364531    1.967114    0.688977
  12 H     1.0000    0     1.008   -0.506936    3.752429    1.146682
  13 H     1.0000    0     1.008   -0.960191   -1.668749   -0.126430
  14 C     6.0000    0    12.011    2.518536    0.000000    0.000000
  15 C     6.0000    0    12.011    3.927788   -2.570474    0.041187
  16 O     8.0000    0    15.999    3.864428    1.934809    0.000000
  17 H     1.0000    0     1.008    3.590053   -3.666341   -1.694880
  18 H     1.0000    0     1.008    3.415568   -3.728594    1.690957
  19 O     8.0000    0    15.999   -3.766517    7.693470   -6.199179
  20 H     1.0000    0     1.008   -4.159652    5.929312   -5.686951
  21 N     7.0000    0    14.007    6.653949   -1.800975    0.186716
  22 H     1.0000    0     1.008    7.736112   -2.424866   -1.306901
  23 H     1.0000    0     1.008    6.428977    0.250871    0.120493
  24 H     1.0000    0     1.008    7.531570   -2.325848    1.844271

--------------------------------
INTERNAL COORDINATES (ANGSTROEM)
--------------------------------
 N      0   0   0     0.000000000000     0.00000000     0.00000000
 H      1   0   0     1.020981439106     0.00000000     0.00000000
 C      1   2   0     1.468318037294   119.01705029     0.00000000
 C      3   1   2     1.550337166894   113.34871835   260.26959617
 H      3   1   2     1.097617798764   108.61511049    20.17014145
 H      3   1   2     1.105237482254   108.16963394   139.07315166
 O      4   3   1     1.207181571297   122.09162774   118.29334434
 C      1   2   3     1.354697878273   119.19760690   186.13535012
 C      8   1   2     1.540224494031   115.72516922   351.26666230
 O      8   1   2     1.236268780565   123.42947427   173.05616440
 N      9   8   1     1.473731797063   111.83252656   283.66491052
 H      9   8   1     1.097552396769   107.89849016   164.79594464
 H      9   8   1     1.101992567769   111.20971298    44.33737404
 H     11   9   8     1.021006837212   117.95532911   269.29030104
 C     11   9   8     1.332752000000   121.94409318    83.47104551
 C     15  11   9     1.551402949352   118.73048160   180.67595340
 O     15  11   9     1.247210231947   124.82323155     1.59392253
 H     16  15  11     1.101008921725   111.84233062    65.21864749
 H     16  15  11     1.100555690398   112.39529064   301.98297871
 O      4   3   1     1.344025107485   114.80006527   297.96589224
 H     20   4   3     0.994118769378   110.25984904   359.64071516
 N     16  15  11     1.500966882848   102.99478973   183.27393835
 H     22  16  15     1.030362289237   114.07245822   239.94228995
 H     22  16  15     1.092859052456    99.39224245   357.79562506
 H     22  16  15     1.030632498755   113.80666512   114.81058214

---------------------------
INTERNAL COORDINATES (A.U.)
---------------------------
 N      0   0   0     0.000000000000     0.00000000     0.00000000
 H      1   0   0     1.929375307726     0.00000000     0.00000000
 C      1   2   0     2.774718967982   119.01705029     0.00000000
 C      3   1   2     2.929712660670   113.34871835   260.26959617
 H      3   1   2     2.074197039382   108.61511049    20.17014145
 H      3   1   2     2.088596154405   108.16963394   139.07315166
 O      4   3   1     2.281242563667   122.09162774   118.29334434
 C      1   2   3     2.560007984140   119.19760690   186.13535012
 C      8   1   2     2.910602478477   115.72516922   351.26666230
 O      8   1   2     2.336209423185   123.42947427   173.05616440
 N      9   8   1     2.784949491301   111.83252656   283.66491052
 H      9   8   1     2.074073447522   107.89849016   164.79594464
 H      9   8   1     2.082464154700   111.20971298    44.33737404
 H     11   9   8     1.929423303191   117.95532911   269.29030104
 C     11   9   8     2.518536284436   121.94409318    83.47104551
 C     15  11   9     2.931726697632   118.73048160   180.67595340
 O     15  11   9     2.356885769805   124.82323155     1.59392253
 H     16  15  11     2.080605333063   111.84233062    65.21864749
 H     16  15  11     2.079748849980   112.39529064   301.98297871
 O      4   3   1     2.539839370261   114.80006527   297.96589224
 H     20   4   3     1.878612218715   110.25984904   359.64071516
 N     16  15  11     2.836416344668   102.99478973   183.27393835
 H     22  16  15     1.947102545377   114.07245822   239.94228995
 H     22  16  15     2.065204312119    99.39224245   357.79562506
 H     22  16  15     1.947613167366   113.80666512   114.81058214

---------------------
BASIS SET INFORMATION
---------------------
There are 4 groups of distinct atoms

 Group   1 Type N   : 11s6p2d1f contracted to 5s3p2d1f pattern {62111/411/11/1}
 Group   2 Type H   : 5s2p1d contracted to 3s2p1d pattern {311/11/1}
 Group   3 Type C   : 11s6p2d1f contracted to 5s3p2d1f pattern {62111/411/11/1}
 Group   4 Type O   : 11s6p2d1f contracted to 5s3p2d1f pattern {62111/411/11/1}

Atom   0N    basis set group =>   1
Atom   1H    basis set group =>   2
Atom   2C    basis set group =>   3
Atom   3C    basis set group =>   3
Atom   4H    basis set group =>   2
Atom   5H    basis set group =>   2
Atom   6O    basis set group =>   4
Atom   7C    basis set group =>   3
Atom   8C    basis set group =>   3
Atom   9O    basis set group =>   4
Atom  10N    basis set group =>   1
Atom  11H    basis set group =>   2
Atom  12H    basis set group =>   2
Atom  13H    basis set group =>   2
Atom  14C    basis set group =>   3
Atom  15C    basis set group =>   3
Atom  16O    basis set group =>   4
Atom  17H    basis set group =>   2
Atom  18H    basis set group =>   2
Atom  19O    basis set group =>   4
Atom  20H    basis set group =>   2
Atom  21N    basis set group =>   1
Atom  22H    basis set group =>   2
Atom  23H    basis set group =>   2
Atom  24H    basis set group =>   2
---------------------------------
AUXILIARY/J BASIS SET INFORMATION
---------------------------------
There are 4 groups of distinct atoms

 Group   1 Type N   : 12s5p4d2f1g contracted to 6s4p3d1f1g pattern {711111/2111/211/2/1}
 Group   2 Type H   : 5s2p1d contracted to 3s1p1d pattern {311/2/1}
 Group   3 Type C   : 12s5p4d2f1g contracted to 6s4p3d1f1g pattern {711111/2111/211/2/1}
 Group   4 Type O   : 12s5p4d2f1g contracted to 6s4p3d1f1g pattern {711111/2111/211/2/1}

Atom   0N    basis set group =>   1
Atom   1H    basis set group =>   2
Atom   2C    basis set group =>   3
Atom   3C    basis set group =>   3
Atom   4H    basis set group =>   2
Atom   5H    basis set group =>   2
Atom   6O    basis set group =>   4
Atom   7C    basis set group =>   3
Atom   8C    basis set group =>   3
Atom   9O    basis set group =>   4
Atom  10N    basis set group =>   1
Atom  11H    basis set group =>   2
Atom  12H    basis set group =>   2
Atom  13H    basis set group =>   2
Atom  14C    basis set group =>   3
Atom  15C    basis set group =>   3
Atom  16O    basis set group =>   4
Atom  17H    basis set group =>   2
Atom  18H    basis set group =>   2
Atom  19O    basis set group =>   4
Atom  20H    basis set group =>   2
Atom  21N    basis set group =>   1
Atom  22H    basis set group =>   2
Atom  23H    basis set group =>   2
Atom  24H    basis set group =>   2


           ************************************************************
           *        Program running with 8 parallel MPI-processes     *
           *              working on a common directory               *
           ************************************************************
------------------------------------------------------------------------------
                           ORCA GTO INTEGRAL CALCULATION
                           -- RI-GTO INTEGRALS CHOSEN --
------------------------------------------------------------------------------
------------------------------------------------------------------------------
                   ___                                                        
                  /   \      - P O W E R E D   B Y -                         
                 /     \                                                     
                 |  |  |   _    _      __       _____    __    __             
                 |  |  |  | |  | |    /  \     |  _  \  |  |  /  |          
                  \  \/   | |  | |   /    \    | | | |  |  | /  /          
                 / \  \   | |__| |  /  /\  \   | |_| |  |  |/  /          
                |  |  |   |  __  | /  /__\  \  |    /   |      \           
                |  |  |   | |  | | |   __   |  |    \   |  |\   \          
                \     /   | |  | | |  |  |  |  | |\  \  |  | \   \       
                 \___/    |_|  |_| |__|  |__|  |_| \__\ |__|  \__/        
                                                                              
                      - O R C A' S   B I G   F R I E N D -                    
                                      &                                       
                       - I N T E G R A L  F E E D E R -                       
                                                                              
 v1 FN, 2020, v2 2021                                                         
------------------------------------------------------------------------------


Reading SHARK input file GGG-H_tt_008_OptFreq.SHARKINP.tmp ... ok
----------------------
SHARK INTEGRAL PACKAGE
----------------------

Number of atoms                             ...     25
Number of basis functions                   ...    571
Number of shells                            ...    215
Maximum angular momentum                    ...      3
Integral batch strategy                     ... SHARK/LIBINT Hybrid
RI-J (if used) integral strategy            ... SPLIT-RIJ (Revised 2003 algorithm where possible)
Printlevel                                  ...      1
Contraction scheme used                     ... SEGMENTED contraction
Coulomb Range Separation                    ... NOT USED
Exchange Range Separation                   ... Long Range
   Mu parameter                             ...  0.300000
   Scaling (regular/separated)              ...  0.167000  0.833000
Finite Nucleus Model                        ... NOT USED
Auxiliary Coulomb fitting basis             ... AVAILABLE
   # of basis functions in Aux-J            ...    769
   # of shells in Aux-J                     ...    255
   Maximum angular momentum in Aux-J        ...      4
Auxiliary J/K fitting basis                 ... NOT available
Auxiliary Correlation fitting basis         ... NOT available
Auxiliary 'external' fitting basis          ... NOT available
Integral threshold                          ...     1.000000e-12
Primitive cut-off                           ...     1.000000e-14
Primitive pair pre-selection threshold      ...     1.000000e-14

Calculating pre-screening integrals         ... done (  0.0 sec) Dimension = 215
Organizing shell pair data                  ... done (  0.1 sec)
Shell pair information
Total number of shell pairs                 ...     23220
Shell pairs after pre-screening             ...     18377
Total number of primitive shell pairs       ...     63868
Primitive shell pairs kept                  ...     36941
          la=0 lb=0:   4067 shell pairs
          la=1 lb=0:   5219 shell pairs
          la=1 lb=1:   1713 shell pairs
          la=2 lb=0:   2892 shell pairs
          la=2 lb=1:   1887 shell pairs
          la=2 lb=2:    529 shell pairs
          la=3 lb=0:    993 shell pairs
          la=3 lb=1:    652 shell pairs
          la=3 lb=2:    358 shell pairs
          la=3 lb=3:     67 shell pairs

Calculating one electron integrals          ... done (  0.0 sec)
Calculating RI/J V-Matrix + Cholesky decomp.... done (  0.4 sec)
Calculating Nuclear repulsion               ... done (  0.0 sec) ENN=    832.089289551505 Eh

SHARK setup successfully completed in   1.6 seconds

Maximum memory used throughout the entire GTOINT-calculation: 30.3 MB


           ************************************************************
           *        Program running with 8 parallel MPI-processes     *
           *              working on a common directory               *
           ************************************************************
-------------------------------------------------------------------------------
                                 ORCA SCF
-------------------------------------------------------------------------------

------------
SCF SETTINGS
------------
Hamiltonian:
 Density Functional     Method          .... DFT(GTOs)
 Exchange Functional    Exchange        .... WB97X-V
 Correlation Functional Correlation     .... WB97X-V
 Gradients option       PostSCFGGA      .... off
 Hybrid DFT is turned on
   Fraction HF Exchange ScalHFX         ....  0.167000
   Scaling of DF-GGA-X  ScalDFX         ....  0.000000
   Scaling of DF-GGA-C  ScalDFC         ....  1.000000
   Scaling of DF-LDA-C  ScalLDAC        ....  1.000000
   Perturbative correction              ....  0.000000
   Density functional embedding theory  .... OFF
 Long-range corrected/Screened/Range-Separated Hybrid DFT is turned on
   Amount of maximum screened exact exchange              ....  0.833000
   Range separation parameter mu (erf(mu*r12)/r12)        ....  0.300000
 RI-approximation to the Coulomb term is turned on
   Number of AuxJ basis functions       .... 769
   RIJ-COSX (HFX calculated with COS-X)).... on


General Settings:
 Integral files         IntName         .... GGG-H_tt_008_OptFreq
 Hartree-Fock type      HFTyp           .... RHF
 Total Charge           Charge          ....    1
 Multiplicity           Mult            ....    1
 Number of Electrons    NEL             ....  100
 Basis Dimension        Dim             ....  571
 Nuclear Repulsion      ENuc            ....    832.0892895515 Eh

Convergence Acceleration:
 DIIS                   CNVDIIS         .... on
   Start iteration      DIISMaxIt       ....    12
   Startup error        DIISStart       ....  0.200000
   # of expansion vecs  DIISMaxEq       ....     5
   Bias factor          DIISBfac        ....   1.050
   Max. coefficient     DIISMaxC        ....  10.000
 Trust-Rad. Augm. Hess. CNVTRAH         .... auto
   Auto Start mean grad. ratio tolernc. ....  1.125000
   Auto Start start iteration           ....    20
   Auto Start num. interpolation iter.  ....    10
   Max. Number of Micro iterations      ....    16
   Max. Number of Macro iterations      .... Maxiter - #DIIS iter
   Number of Davidson start vectors     ....     2
   Converg. threshold I  (grad. norm)   ....   2.000e-06
   Converg. threshold II (energy diff.) ....   1.000e-09
   Grad. Scal. Fac. for Micro threshold ....   0.100
   Minimum threshold for Micro iter.    ....   0.010
   NR start threshold (gradient norm)   ....   0.001
   Initial trust radius                 ....   0.400
   Minimum AH scaling param. (alpha)    ....   1.000
   Maximum AH scaling param. (alpha)    .... 1000.000
   Orbital update algorithm             .... Taylor
   White noise on init. David. guess    .... on
   Maximum white noise                  ....   0.010
   Quad. conv. algorithm                .... NR
 SOSCF                  CNVSOSCF        .... on
   Start iteration      SOSCFMaxIt      ....   150
   Startup grad/error   SOSCFStart      ....  0.003300
 Level Shifting         CNVShift        .... on
   Level shift para.    LevelShift      ....    0.2500
   Turn off err/grad.   ShiftErr        ....    0.0010
 Zerner damping         CNVZerner       .... off
 Static damping         CNVDamp         .... on
   Fraction old density DampFac         ....    0.7000
   Max. Damping (<1)    DampMax         ....    0.9800
   Min. Damping (>=0)   DampMin         ....    0.0000
   Turn off err/grad.   DampErr         ....    0.1000
 Fernandez-Rico         CNVRico         .... off

SCF Procedure:
 Maximum # iterations   MaxIter         ....   125
 SCF integral mode      SCFMode         .... Direct
   Integral package                     .... SHARK and LIBINT hybrid scheme
 Reset frequency        DirectResetFreq ....    20
 Integral Threshold     Thresh          ....  1.000e-12 Eh
 Primitive CutOff       TCut            ....  1.000e-14 Eh

Convergence Tolerance:
 Convergence Check Mode ConvCheckMode   .... Total+1el-Energy
 Convergence forced     ConvForced      .... 0
 Energy Change          TolE            ....  1.000e-09 Eh
 1-El. energy change                    ....  1.000e-06 Eh
 Orbital Gradient       TolG            ....  2.000e-06
 Orbital Rotation angle TolX            ....  2.000e-06
 DIIS Error             TolErr          ....  1.000e-08


Diagonalization of the overlap matrix:
Smallest eigenvalue                        ... 1.262e-04
Time for diagonalization                   ...    0.056 sec
Threshold for overlap eigenvalues          ... 1.000e-08
Number of eigenvalues below threshold      ... 0
Time for construction of square roots      ...    0.181 sec
Total time needed                          ...    0.331 sec

Time for model grid setup =    0.312 sec

------------------------------
INITIAL GUESS: MODEL POTENTIAL
------------------------------
Loading Hartree-Fock densities                     ... done
Calculating cut-offs                               ... done
Initializing the effective Hamiltonian             ... done
Setting up the integral package (SHARK)            ... done
Starting the Coulomb interaction                   ... done (   0.2 sec)
Reading the grid                                   ... done
Mapping shells                                     ... done
Starting the XC term evaluation                    ... done (   0.1 sec)
  promolecular density results
     # of electrons  =    100.996519540
     EX              =    -58.964527476
     EC              =     -4.265587391
     EX+EC           =    -63.230114867
Transforming the Hamiltonian                       ... done (   0.0 sec)
Diagonalizing the Hamiltonian                      ... done (   0.0 sec)
Back transforming the eigenvectors                 ... done (   0.0 sec)
Now organizing SCF variables                       ... done
                      ------------------
                      INITIAL GUESS DONE (   0.7 sec)
                      ------------------
-------------------
DFT GRID GENERATION
-------------------

General Integration Accuracy     IntAcc      ... 4.959
Radial Grid Type                 RadialGrid  ... OptM3 with GC (2021)
Angular Grid (max. ang.)         AngularGrid ... 6 (Lebedev-590)
Angular grid pruning method      GridPruning ... 4 (adaptive)
Weight generation scheme         WeightScheme... Becke
Basis function cutoff            BFCut       ... 1.0000e-12
Integration weight cutoff        WCut        ... 1.0000e-14
Angular grids for H and He will be reduced by one unit
Partially contracted basis set               ... off
Rotationally invariant grid construction     ... off

Total number of grid points                  ...   289438
Total number of batches                      ...     4535
Average number of points per batch           ...       63
Average number of grid points per atom       ...    11578
Time for grid setup =    3.896 sec

--------------------
COSX GRID GENERATION
--------------------

GRIDX 1
-------
General Integration Accuracy     IntAcc      ... 4.020
Radial Grid Type                 RadialGrid  ... OptM3 with GC (2021)
Angular Grid (max. ang.)         AngularGrid ... 2 (Lebedev-110)
Angular grid pruning method      GridPruning ... 4 (adaptive)
Weight generation scheme         WeightScheme... Becke
Basis function cutoff            BFCut       ... 1.0000e-12
Integration weight cutoff        WCut        ... 1.0000e-14
Angular grids for H and He will be reduced by one unit
Partially contracted basis set               ... on
Rotationally invariant grid construction     ... off

Total number of grid points                  ...    32294
Total number of batches                      ...      517
Average number of points per batch           ...       62
Average number of grid points per atom       ...     1292
UseSFitting                                  ... on

GRIDX 2
-------
General Integration Accuracy     IntAcc      ... 4.338
Radial Grid Type                 RadialGrid  ... OptM3 with GC (2021)
Angular Grid (max. ang.)         AngularGrid ... 3 (Lebedev-194)
Angular grid pruning method      GridPruning ... 4 (adaptive)
Weight generation scheme         WeightScheme... Becke
Basis function cutoff            BFCut       ... 1.0000e-12
Integration weight cutoff        WCut        ... 1.0000e-14
Angular grids for H and He will be reduced by one unit
Partially contracted basis set               ... on
Rotationally invariant grid construction     ... off

Total number of grid points                  ...    70791
Total number of batches                      ...     1121
Average number of points per batch           ...       63
Average number of grid points per atom       ...     2832
UseSFitting                                  ... on

GRIDX 3
-------
General Integration Accuracy     IntAcc      ... 4.871
Radial Grid Type                 RadialGrid  ... OptM3 with GC (2021)
Angular Grid (max. ang.)         AngularGrid ... 4 (Lebedev-302)
Angular grid pruning method      GridPruning ... 4 (adaptive)
Weight generation scheme         WeightScheme... Becke
Basis function cutoff            BFCut       ... 1.0000e-12
Integration weight cutoff        WCut        ... 1.0000e-14
Angular grids for H and He will be reduced by one unit
Partially contracted basis set               ... on
Rotationally invariant grid construction     ... off

Total number of grid points                  ...   134131
Total number of batches                      ...     2111
Average number of points per batch           ...       63
Average number of grid points per atom       ...     5365
UseSFitting                                  ... on

Time for X-Grid setup             =    2.258 sec

--------------
SCF ITERATIONS
--------------
ITER       Energy         Delta-E        Max-DP      RMS-DP      [F,P]     Damp
               ***  Starting incremental Fock matrix formation  ***
  0   -701.1396748028   0.000000000000 0.09535972  0.00048069  0.3413294 0.7000
  1   -701.1872424966  -0.047567693758 0.09038576  0.00044439  0.2340653 0.7000
                               ***Turning on DIIS***
  2   -701.2152309814  -0.027988484802 0.07318780  0.00035093  0.1631364 0.7000
  3   -701.2337454384  -0.018514457064 0.05910023  0.00028200  0.1125471 0.7000
  4   -701.2467782835  -0.013032845065 0.15120063  0.00074232  0.0774740 0.0000
                      *** Initiating the SOSCF procedure ***
                           *** Shutting down DIIS ***
                      *** Re-Reading the Fockian *** 
                      *** Removing any level shift *** 
ITER      Energy       Delta-E        Grad      Rot      Max-DP    RMS-DP
  5   -701.27834320  -0.0315649150  0.000993  0.000993  0.010162  0.000073
               *** Restarting incremental Fock matrix formation ***
  6   -701.27848035  -0.0001371540  0.000496  0.001159  0.006265  0.000045
  7   -701.27851638  -0.0000360323  0.000371  0.001235  0.003772  0.000031
  8   -701.27852329  -0.0000069004  0.000212  0.000335  0.001125  0.000010
  9   -701.27852593  -0.0000026441  0.000065  0.000084  0.000590  0.000005
 10   -701.27852610  -0.0000001705  0.000026  0.000039  0.000193  0.000002
 11   -701.27852623  -0.0000001269  0.000007  0.000019  0.000018  0.000000
 12   -701.27852623  -0.0000000031  0.000003  0.000005  0.000024  0.000000
 13   -701.27852623  -0.0000000023  0.000001  0.000003  0.000004  0.000000
 14   -701.27852623  -0.0000000003  0.000001  0.000001  0.000001  0.000000
                  ***Gradient check signals convergence***
              ***Rediagonalizing the Fockian in SOSCF/NRSCF***

               *****************************************************
               *                     SUCCESS                       *
               *           SCF CONVERGED AFTER  15 CYCLES          *
               *****************************************************

Old exchange energy                            =    -27.826112454 Eh
New exchange energy                            =    -27.826111109 Eh
Exchange energy change after final integration =      0.000001345 Eh
Total energy after final integration           =   -701.278524888 Eh
Final COS-X integration done in                =    29.419 sec

----------------
TOTAL SCF ENERGY
----------------

Total Energy       :         -701.27852489 Eh          -19082.75881 eV

Components:
Nuclear Repulsion  :          832.08928955 Eh           22642.30068 eV
Electronic Energy  :        -1533.36781444 Eh          -41725.05949 eV
One Electron Energy:        -2592.86160025 Eh          -70555.35111 eV
Two Electron Energy:         1059.49378581 Eh           28830.29162 eV
Max COSX asymmetry :            0.00000051 Eh               0.00001 eV

Virial components:
Potential Energy   :        -1399.20622115 Eh          -38074.33694 eV
Kinetic Energy     :          697.92769626 Eh           18991.57813 eV
Virial Ratio       :            2.00480111


DFT components:
N(Alpha)           :       50.000002593578 electrons
N(Beta)            :       50.000002593578 electrons
N(Total)           :      100.000005187157 electrons
E(X)               :      -60.038234274127 Eh       
E(C)               :       -4.264102900385 Eh       
E(XC)              :      -64.302337174512 Eh       
DFET-embed. en.    :        0.000000000000 Eh       

---------------
SCF CONVERGENCE
---------------

  Last Energy change         ...   -1.7440e-10  Tolerance :   1.0000e-09
  Last MAX-Density change    ...    2.6645e-15  Tolerance :   1.0000e-08
  Last RMS-Density change    ...    1.5136e-17  Tolerance :   1.0000e-09
  Last Orbital Gradient      ...    1.5430e-07  Tolerance :   2.0000e-06
  Last Orbital Rotation      ...    3.0561e-07  Tolerance :   2.0000e-06

             **** THE GBW FILE WAS UPDATED (GGG-H_tt_008_OptFreq.gbw) ****
             **** DENSITY GGG-H_tt_008_OptFreq.scfp WAS UPDATED ****
             **** ENERGY FILE WAS UPDATED (GGG-H_tt_008_OptFreq.en.tmp) ****
             **** THE GBW FILE WAS UPDATED (GGG-H_tt_008_OptFreq.gbw) ****
             **** DENSITY GGG-H_tt_008_OptFreq.scfp WAS UPDATED ****
----------------
ORBITAL ENERGIES
----------------

  NO   OCC          E(Eh)            E(eV) 
   0   2.0000     -19.399560      -527.8889 
   1   2.0000     -19.329634      -525.9861 
   2   2.0000     -19.326231      -525.8935 
   3   2.0000     -19.278477      -524.5940 
   4   2.0000     -14.726254      -400.7217 
   5   2.0000     -14.644080      -398.4857 
   6   2.0000     -14.582433      -396.8082 
   7   2.0000     -10.592812      -288.2451 
   8   2.0000     -10.552308      -287.1429 
   9   2.0000     -10.524893      -286.3969 
  10   2.0000     -10.489580      -285.4360 
  11   2.0000     -10.482247      -285.2364 
  12   2.0000     -10.436866      -284.0016 
  13   2.0000      -1.392522       -37.8925 
  14   2.0000      -1.321449       -35.9585 
  15   2.0000      -1.317557       -35.8526 
  16   2.0000      -1.302573       -35.4448 
  17   2.0000      -1.258363       -34.2418 
  18   2.0000      -1.225816       -33.3561 
  19   2.0000      -1.194512       -32.5043 
  20   2.0000      -1.087877       -29.6026 
  21   2.0000      -1.028839       -27.9961 
  22   2.0000      -0.973421       -26.4881 
  23   2.0000      -0.914200       -24.8766 
  24   2.0000      -0.901714       -24.5369 
  25   2.0000      -0.899466       -24.4757 
  26   2.0000      -0.854022       -23.2391 
  27   2.0000      -0.832235       -22.6463 
  28   2.0000      -0.811060       -22.0701 
  29   2.0000      -0.797099       -21.6902 
  30   2.0000      -0.790800       -21.5188 
  31   2.0000      -0.774734       -21.0816 
  32   2.0000      -0.756211       -20.5776 
  33   2.0000      -0.750543       -20.4233 
  34   2.0000      -0.720400       -19.6031 
  35   2.0000      -0.705975       -19.2105 
  36   2.0000      -0.695869       -18.9356 
  37   2.0000      -0.675928       -18.3929 
  38   2.0000      -0.667522       -18.1642 
  39   2.0000      -0.655626       -17.8405 
  40   2.0000      -0.639250       -17.3949 
  41   2.0000      -0.627032       -17.0624 
  42   2.0000      -0.610086       -16.6013 
  43   2.0000      -0.596597       -16.2342 
  44   2.0000      -0.581922       -15.8349 
  45   2.0000      -0.571630       -15.5548 
  46   2.0000      -0.519273       -14.1301 
  47   2.0000      -0.502442       -13.6721 
  48   2.0000      -0.501641       -13.6503 
  49   2.0000      -0.457087       -12.4380 
  50   0.0000      -0.107221        -2.9176 
  51   0.0000      -0.103784        -2.8241 
  52   0.0000      -0.068002        -1.8504 
  53   0.0000      -0.049473        -1.3462 
  54   0.0000      -0.040815        -1.1106 
  55   0.0000      -0.017327        -0.4715 
  56   0.0000      -0.015635        -0.4254 
  57   0.0000       0.008027         0.2184 
  58   0.0000       0.014573         0.3966 
  59   0.0000       0.022525         0.6129 
  60   0.0000       0.025960         0.7064 
  61   0.0000       0.034813         0.9473 
  62   0.0000       0.040385         1.0989 
  63   0.0000       0.045146         1.2285 
  64   0.0000       0.065134         1.7724 
  65   0.0000       0.075431         2.0526 
  66   0.0000       0.089593         2.4380 
  67   0.0000       0.093578         2.5464 
  68   0.0000       0.103649         2.8204 
  69   0.0000       0.109836         2.9888 
  70   0.0000       0.124209         3.3799 
  71   0.0000       0.129028         3.5110 
  72   0.0000       0.136373         3.7109 
  73   0.0000       0.145460         3.9582 
  74   0.0000       0.156469         4.2577 
  75   0.0000       0.168106         4.5744 
  76   0.0000       0.173941         4.7332 
  77   0.0000       0.182035         4.9534 
  78   0.0000       0.200057         5.4438 
  79   0.0000       0.207832         5.6554 
  80   0.0000       0.214993         5.8503 
  81   0.0000       0.224327         6.1043 
  82   0.0000       0.235692         6.4135 
  83   0.0000       0.242207         6.5908 
  84   0.0000       0.253252         6.8913 
  85   0.0000       0.255256         6.9459 
  86   0.0000       0.266691         7.2570 
  87   0.0000       0.272332         7.4105 
  88   0.0000       0.278491         7.5781 
  89   0.0000       0.291100         7.9212 
  90   0.0000       0.293714         7.9924 
  91   0.0000       0.299447         8.1484 
  92   0.0000       0.302784         8.2392 
  93   0.0000       0.312711         8.5093 
  94   0.0000       0.315019         8.5721 
  95   0.0000       0.323509         8.8031 
  96   0.0000       0.330139         8.9835 
  97   0.0000       0.336045         9.1443 
  98   0.0000       0.343520         9.3476 
  99   0.0000       0.344721         9.3803 
 100   0.0000       0.353697         9.6246 
 101   0.0000       0.356296         9.6953 
 102   0.0000       0.365613         9.9488 
 103   0.0000       0.379415        10.3244 
 104   0.0000       0.387609        10.5474 
 105   0.0000       0.389565        10.6006 
 106   0.0000       0.398946        10.8559 
 107   0.0000       0.404322        11.0021 
 108   0.0000       0.408716        11.1217 
 109   0.0000       0.411807        11.2058 
 110   0.0000       0.425224        11.5709 
 111   0.0000       0.431783        11.7494 
 112   0.0000       0.445358        12.1188 
 113   0.0000       0.453676        12.3451 
 114   0.0000       0.461560        12.5597 
 115   0.0000       0.468051        12.7363 
 116   0.0000       0.497054        13.5255 
 117   0.0000       0.503673        13.7056 
 118   0.0000       0.517896        14.0927 
 119   0.0000       0.519189        14.1278 
 120   0.0000       0.529354        14.4044 
 121   0.0000       0.543757        14.7964 
 122   0.0000       0.553158        15.0522 
 123   0.0000       0.556607        15.1460 
 124   0.0000       0.564782        15.3685 
 125   0.0000       0.574210        15.6251 
 126   0.0000       0.587816        15.9953 
 127   0.0000       0.596909        16.2427 
 128   0.0000       0.600255        16.3338 
 129   0.0000       0.613890        16.7048 
 130   0.0000       0.624121        16.9832 
 131   0.0000       0.635244        17.2859 
 132   0.0000       0.651595        17.7308 
 133   0.0000       0.654921        17.8213 
 134   0.0000       0.674110        18.3435 
 135   0.0000       0.681648        18.5486 
 136   0.0000       0.693305        18.8658 
 137   0.0000       0.702562        19.1177 
 138   0.0000       0.706339        19.2205 
 139   0.0000       0.728688        19.8286 
 140   0.0000       0.745393        20.2832 
 141   0.0000       0.750209        20.4142 
 142   0.0000       0.778887        21.1946 
 143   0.0000       0.785711        21.3803 
 144   0.0000       0.791498        21.5378 
 145   0.0000       0.793999        21.6058 
 146   0.0000       0.817558        22.2469 
 147   0.0000       0.820952        22.3392 
 148   0.0000       0.825884        22.4735 
 149   0.0000       0.828585        22.5470 
 150   0.0000       0.838847        22.8262 
 151   0.0000       0.857098        23.3228 
 152   0.0000       0.862312        23.4647 
 153   0.0000       0.876840        23.8600 
 154   0.0000       0.883950        24.0535 
 155   0.0000       0.897461        24.4212 
 156   0.0000       0.900429        24.5019 
 157   0.0000       0.909071        24.7371 
 158   0.0000       0.914948        24.8970 
 159   0.0000       0.927021        25.2255 
 160   0.0000       0.943385        25.6708 
 161   0.0000       0.949449        25.8358 
 162   0.0000       0.955086        25.9892 
 163   0.0000       0.973253        26.4835 
 164   0.0000       0.984446        26.7881 
 165   0.0000       0.997985        27.1565 
 166   0.0000       1.000891        27.2356 
 167   0.0000       1.010931        27.5088 
 168   0.0000       1.022528        27.8244 
 169   0.0000       1.023979        27.8639 
 170   0.0000       1.036495        28.2045 
 171   0.0000       1.047294        28.4983 
 172   0.0000       1.056672        28.7535 
 173   0.0000       1.063817        28.9479 
 174   0.0000       1.088202        29.6115 
 175   0.0000       1.093168        29.7466 
 176   0.0000       1.105969        30.0949 
 177   0.0000       1.115454        30.3530 
 178   0.0000       1.121832        30.5266 
 179   0.0000       1.130299        30.7570 
 180   0.0000       1.134044        30.8589 
 181   0.0000       1.164725        31.6938 
 182   0.0000       1.177598        32.0441 
 183   0.0000       1.189924        32.3795 
 184   0.0000       1.196991        32.5718 
 185   0.0000       1.210202        32.9313 
 186   0.0000       1.216937        33.1145 
 187   0.0000       1.234731        33.5987 
 188   0.0000       1.240211        33.7479 
 189   0.0000       1.251108        34.0444 
 190   0.0000       1.259400        34.2700 
 191   0.0000       1.266367        34.4596 
 192   0.0000       1.292045        35.1583 
 193   0.0000       1.295115        35.2419 
 194   0.0000       1.301949        35.4278 
 195   0.0000       1.313072        35.7305 
 196   0.0000       1.320522        35.9332 
 197   0.0000       1.328949        36.1625 
 198   0.0000       1.343856        36.5682 
 199   0.0000       1.371167        37.3113 
 200   0.0000       1.380060        37.5533 
 201   0.0000       1.386644        37.7325 
 202   0.0000       1.401801        38.1449 
 203   0.0000       1.405626        38.2490 
 204   0.0000       1.412261        38.4296 
 205   0.0000       1.422655        38.7124 
 206   0.0000       1.428089        38.8603 
 207   0.0000       1.445715        39.3399 
 208   0.0000       1.446966        39.3739 
 209   0.0000       1.458380        39.6845 
 210   0.0000       1.463951        39.8361 
 211   0.0000       1.478523        40.2327 
 212   0.0000       1.501517        40.8584 
 213   0.0000       1.508435        41.0466 
 214   0.0000       1.514109        41.2010 
 215   0.0000       1.540877        41.9294 
 216   0.0000       1.545480        42.0547 
 217   0.0000       1.563549        42.5463 
 218   0.0000       1.581275        43.0287 
 219   0.0000       1.589898        43.2633 
 220   0.0000       1.603426        43.6314 
 221   0.0000       1.621387        44.1202 
 222   0.0000       1.638328        44.5812 
 223   0.0000       1.650729        44.9186 
 224   0.0000       1.670836        45.4658 
 225   0.0000       1.680051        45.7165 
 226   0.0000       1.687063        45.9073 
 227   0.0000       1.715300        46.6757 
 228   0.0000       1.730362        47.0856 
 229   0.0000       1.741913        47.3999 
 230   0.0000       1.762328        47.9554 
 231   0.0000       1.790661        48.7264 
 232   0.0000       1.802900        49.0594 
 233   0.0000       1.809942        49.2510 
 234   0.0000       1.823415        49.6176 
 235   0.0000       1.832194        49.8565 
 236   0.0000       1.874086        50.9965 
 237   0.0000       1.897351        51.6295 
 238   0.0000       1.914514        52.0966 
 239   0.0000       1.918799        52.2132 
 240   0.0000       1.936589        52.6973 
 241   0.0000       1.952582        53.1325 
 242   0.0000       1.971471        53.6465 
 243   0.0000       1.979121        53.8546 
 244   0.0000       1.994436        54.2714 
 245   0.0000       2.020244        54.9736 
 246   0.0000       2.037214        55.4354 
 247   0.0000       2.062361        56.1197 
 248   0.0000       2.065149        56.1956 
 249   0.0000       2.095805        57.0297 
 250   0.0000       2.112591        57.4865 
 251   0.0000       2.128951        57.9317 
 252   0.0000       2.139358        58.2149 
 253   0.0000       2.152461        58.5714 
 254   0.0000       2.182942        59.4009 
 255   0.0000       2.193132        59.6781 
 256   0.0000       2.229207        60.6598 
 257   0.0000       2.244323        61.0711 
 258   0.0000       2.264258        61.6136 
 259   0.0000       2.268637        61.7328 
 260   0.0000       2.287720        62.2520 
 261   0.0000       2.300018        62.5867 
 262   0.0000       2.326726        63.3134 
 263   0.0000       2.343227        63.7625 
 264   0.0000       2.358174        64.1692 
 265   0.0000       2.368923        64.4617 
 266   0.0000       2.391609        65.0790 
 267   0.0000       2.412017        65.6343 
 268   0.0000       2.434298        66.2406 
 269   0.0000       2.472870        67.2902 
 270   0.0000       2.478674        67.4482 
 271   0.0000       2.494497        67.8787 
 272   0.0000       2.509272        68.2808 
 273   0.0000       2.518585        68.5342 
 274   0.0000       2.524232        68.6879 
 275   0.0000       2.559291        69.6418 
 276   0.0000       2.568842        69.9018 
 277   0.0000       2.575386        70.0798 
 278   0.0000       2.585171        70.3461 
 279   0.0000       2.591046        70.5059 
 280   0.0000       2.615325        71.1666 
 281   0.0000       2.626033        71.4580 
 282   0.0000       2.638753        71.8041 
 283   0.0000       2.656959        72.2995 
 284   0.0000       2.667081        72.5750 
 285   0.0000       2.678302        72.8803 
 286   0.0000       2.693207        73.2859 
 287   0.0000       2.719620        74.0046 
 288   0.0000       2.723241        74.1032 
 289   0.0000       2.745435        74.7071 
 290   0.0000       2.747643        74.7672 
 291   0.0000       2.759703        75.0953 
 292   0.0000       2.772251        75.4368 
 293   0.0000       2.779402        75.6314 
 294   0.0000       2.795198        76.0612 
 295   0.0000       2.803446        76.2856 
 296   0.0000       2.817810        76.6765 
 297   0.0000       2.835554        77.1593 
 298   0.0000       2.840333        77.2894 
 299   0.0000       2.858941        77.7957 
 300   0.0000       2.867530        78.0294 
 301   0.0000       2.881515        78.4100 
 302   0.0000       2.901952        78.9661 
 303   0.0000       2.908305        79.1390 
 304   0.0000       2.913397        79.2776 
 305   0.0000       2.925769        79.6142 
 306   0.0000       2.933974        79.8375 
 307   0.0000       2.941962        80.0549 
 308   0.0000       2.960657        80.5636 
 309   0.0000       2.966955        80.7349 
 310   0.0000       2.978045        81.0367 
 311   0.0000       2.985814        81.2481 
 312   0.0000       2.990805        81.3839 
 313   0.0000       3.019557        82.1663 
 314   0.0000       3.025269        82.3218 
 315   0.0000       3.029730        82.4431 
 316   0.0000       3.038687        82.6869 
 317   0.0000       3.045799        82.8804 
 318   0.0000       3.050120        82.9980 
 319   0.0000       3.065218        83.4088 
 320   0.0000       3.087638        84.0189 
 321   0.0000       3.091170        84.1150 
 322   0.0000       3.097582        84.2895 
 323   0.0000       3.109073        84.6022 
 324   0.0000       3.109387        84.6107 
 325   0.0000       3.117461        84.8304 
 326   0.0000       3.126419        85.0742 
 327   0.0000       3.139071        85.4185 
 328   0.0000       3.145356        85.5895 
 329   0.0000       3.159377        85.9710 
 330   0.0000       3.178042        86.4789 
 331   0.0000       3.180190        86.5374 
 332   0.0000       3.207147        87.2709 
 333   0.0000       3.214242        87.4640 
 334   0.0000       3.221812        87.6700 
 335   0.0000       3.231701        87.9390 
 336   0.0000       3.246770        88.3491 
 337   0.0000       3.250355        88.4466 
 338   0.0000       3.262022        88.7641 
 339   0.0000       3.265115        88.8483 
 340   0.0000       3.277656        89.1896 
 341   0.0000       3.294059        89.6359 
 342   0.0000       3.308052        90.0167 
 343   0.0000       3.311862        90.1203 
 344   0.0000       3.326991        90.5320 
 345   0.0000       3.327712        90.5517 
 346   0.0000       3.353798        91.2615 
 347   0.0000       3.354723        91.2867 
 348   0.0000       3.364034        91.5400 
 349   0.0000       3.371214        91.7354 
 350   0.0000       3.388439        92.2041 
 351   0.0000       3.410270        92.7982 
 352   0.0000       3.418443        93.0206 
 353   0.0000       3.425084        93.2013 
 354   0.0000       3.437346        93.5350 
 355   0.0000       3.449555        93.8672 
 356   0.0000       3.458507        94.1108 
 357   0.0000       3.466665        94.3327 
 358   0.0000       3.480726        94.7154 
 359   0.0000       3.494801        95.0984 
 360   0.0000       3.501576        95.2827 
 361   0.0000       3.507882        95.4543 
 362   0.0000       3.516740        95.6954 
 363   0.0000       3.534433        96.1768 
 364   0.0000       3.547011        96.5191 
 365   0.0000       3.550249        96.6072 
 366   0.0000       3.566216        97.0417 
 367   0.0000       3.572785        97.2204 
 368   0.0000       3.585837        97.5756 
 369   0.0000       3.590506        97.7026 
 370   0.0000       3.624954        98.6400 
 371   0.0000       3.638222        99.0010 
 372   0.0000       3.656176        99.4896 
 373   0.0000       3.664124        99.7059 
 374   0.0000       3.675572       100.0174 
 375   0.0000       3.691095       100.4398 
 376   0.0000       3.706239       100.8519 
 377   0.0000       3.714191       101.0683 
 378   0.0000       3.726439       101.4015 
 379   0.0000       3.728772       101.4650 
 380   0.0000       3.737563       101.7043 
 381   0.0000       3.753622       102.1412 
 382   0.0000       3.762558       102.3844 
 383   0.0000       3.771884       102.6382 
 384   0.0000       3.778448       102.8168 
 385   0.0000       3.786993       103.0493 
 386   0.0000       3.792935       103.2110 
 387   0.0000       3.807603       103.6101 
 388   0.0000       3.825426       104.0951 
 389   0.0000       3.830681       104.2381 
 390   0.0000       3.835868       104.3793 
 391   0.0000       3.873655       105.4075 
 392   0.0000       3.878092       105.5282 
 393   0.0000       3.895638       106.0057 
 394   0.0000       3.897354       106.0524 
 395   0.0000       3.918031       106.6150 
 396   0.0000       3.932419       107.0066 
 397   0.0000       3.964911       107.8907 
 398   0.0000       3.967716       107.9670 
 399   0.0000       3.981633       108.3457 
 400   0.0000       3.989347       108.5556 
 401   0.0000       4.002790       108.9215 
 402   0.0000       4.013608       109.2158 
 403   0.0000       4.021771       109.4379 
 404   0.0000       4.038080       109.8817 
 405   0.0000       4.064636       110.6044 
 406   0.0000       4.072597       110.8210 
 407   0.0000       4.089908       111.2921 
 408   0.0000       4.101488       111.6071 
 409   0.0000       4.111747       111.8863 
 410   0.0000       4.121176       112.1429 
 411   0.0000       4.124710       112.2391 
 412   0.0000       4.136242       112.5529 
 413   0.0000       4.145633       112.8084 
 414   0.0000       4.160889       113.2235 
 415   0.0000       4.176104       113.6376 
 416   0.0000       4.191647       114.0605 
 417   0.0000       4.205098       114.4265 
 418   0.0000       4.208570       114.5210 
 419   0.0000       4.225878       114.9920 
 420   0.0000       4.234614       115.2297 
 421   0.0000       4.245929       115.5376 
 422   0.0000       4.268752       116.1586 
 423   0.0000       4.295130       116.8764 
 424   0.0000       4.307329       117.2084 
 425   0.0000       4.319239       117.5325 
 426   0.0000       4.325066       117.6910 
 427   0.0000       4.355551       118.5206 
 428   0.0000       4.379412       119.1699 
 429   0.0000       4.387145       119.3803 
 430   0.0000       4.395522       119.6082 
 431   0.0000       4.436078       120.7118 
 432   0.0000       4.440302       120.8267 
 433   0.0000       4.457546       121.2960 
 434   0.0000       4.470235       121.6413 
 435   0.0000       4.481032       121.9351 
 436   0.0000       4.531438       123.3067 
 437   0.0000       4.553923       123.9185 
 438   0.0000       4.575238       124.4986 
 439   0.0000       4.581954       124.6813 
 440   0.0000       4.607664       125.3809 
 441   0.0000       4.621447       125.7560 
 442   0.0000       4.636630       126.1691 
 443   0.0000       4.650055       126.5344 
 444   0.0000       4.664654       126.9317 
 445   0.0000       4.668077       127.0248 
 446   0.0000       4.671790       127.1259 
 447   0.0000       4.692500       127.6894 
 448   0.0000       4.697787       127.8333 
 449   0.0000       4.733420       128.8029 
 450   0.0000       4.739514       128.9687 
 451   0.0000       4.749463       129.2395 
 452   0.0000       4.772277       129.8603 
 453   0.0000       4.778560       130.0312 
 454   0.0000       4.807719       130.8247 
 455   0.0000       4.828722       131.3962 
 456   0.0000       4.851578       132.0182 
 457   0.0000       4.877692       132.7288 
 458   0.0000       4.909354       133.5903 
 459   0.0000       4.917339       133.8076 
 460   0.0000       4.938717       134.3893 
 461   0.0000       4.953970       134.8044 
 462   0.0000       4.970612       135.2572 
 463   0.0000       4.983084       135.5966 
 464   0.0000       5.008760       136.2953 
 465   0.0000       5.025048       136.7385 
 466   0.0000       5.048832       137.3857 
 467   0.0000       5.075513       138.1117 
 468   0.0000       5.098996       138.7507 
 469   0.0000       5.112317       139.1132 
 470   0.0000       5.116380       139.2238 
 471   0.0000       5.142726       139.9407 
 472   0.0000       5.155884       140.2987 
 473   0.0000       5.162712       140.4845 
 474   0.0000       5.183477       141.0496 
 475   0.0000       5.190019       141.2276 
 476   0.0000       5.215503       141.9210 
 477   0.0000       5.223488       142.1383 
 478   0.0000       5.232635       142.3872 
 479   0.0000       5.236816       142.5010 
 480   0.0000       5.265244       143.2746 
 481   0.0000       5.277385       143.6049 
 482   0.0000       5.283400       143.7686 
 483   0.0000       5.295913       144.1091 
 484   0.0000       5.303275       144.3094 
 485   0.0000       5.329624       145.0264 
 486   0.0000       5.337682       145.2457 
 487   0.0000       5.346946       145.4978 
 488   0.0000       5.355508       145.7308 
 489   0.0000       5.387523       146.6019 
 490   0.0000       5.419622       147.4754 
 491   0.0000       5.428966       147.7297 
 492   0.0000       5.452411       148.3676 
 493   0.0000       5.473895       148.9523 
 494   0.0000       5.501553       149.7049 
 495   0.0000       5.524782       150.3370 
 496   0.0000       5.533383       150.5710 
 497   0.0000       5.550411       151.0343 
 498   0.0000       5.569784       151.5615 
 499   0.0000       5.578054       151.7866 
 500   0.0000       5.584870       151.9720 
 501   0.0000       5.608165       152.6059 
 502   0.0000       5.632981       153.2812 
 503   0.0000       5.638818       153.4400 
 504   0.0000       5.643237       153.5603 
 505   0.0000       5.666162       154.1841 
 506   0.0000       5.698160       155.0548 
 507   0.0000       5.715346       155.5225 
 508   0.0000       5.732318       155.9843 
 509   0.0000       5.749672       156.4565 
 510   0.0000       5.769802       157.0043 
 511   0.0000       5.788203       157.5050 
 512   0.0000       5.855800       159.3444 
 513   0.0000       5.872187       159.7903 
 514   0.0000       5.887029       160.1942 
 515   0.0000       5.921226       161.1247 
 516   0.0000       5.925583       161.2433 
 517   0.0000       5.938653       161.5990 
 518   0.0000       5.991961       163.0495 
 519   0.0000       6.035658       164.2386 
 520   0.0000       6.060190       164.9062 
 521   0.0000       6.121953       166.5868 
 522   0.0000       6.152216       167.4103 
 523   0.0000       6.246227       169.9685 
 524   0.0000       6.269448       170.6003 
 525   0.0000       6.284596       171.0126 
 526   0.0000       6.310797       171.7255 
 527   0.0000       6.330380       172.2584 
 528   0.0000       6.355131       172.9319 
 529   0.0000       6.377845       173.5500 
 530   0.0000       6.397670       174.0894 
 531   0.0000       6.426862       174.8838 
 532   0.0000       6.452642       175.5853 
 533   0.0000       6.492263       176.6635 
 534   0.0000       6.501881       176.9252 
 535   0.0000       6.536082       177.8558 
 536   0.0000       6.537327       177.8897 
 537   0.0000       6.636656       180.5926 
 538   0.0000       6.662910       181.3070 
 539   0.0000       6.676605       181.6797 
 540   0.0000       6.698682       182.2804 
 541   0.0000       6.749986       183.6765 
 542   0.0000       6.772823       184.2979 
 543   0.0000       6.786974       184.6830 
 544   0.0000       6.807440       185.2399 
 545   0.0000       6.813915       185.4160 
 546   0.0000       6.856947       186.5870 
 547   0.0000       6.864978       186.8056 
 548   0.0000       6.912939       188.1106 
 549   0.0000       7.045169       191.7088 
 550   0.0000       7.092573       192.9987 
 551   0.0000       7.117808       193.6854 
 552   0.0000       7.140548       194.3042 
 553   0.0000       7.152082       194.6180 
 554   0.0000       7.156260       194.7317 
 555   0.0000       7.181825       195.4274 
 556   0.0000       7.455793       202.8824 
 557   0.0000       7.600522       206.8207 
 558   0.0000      23.069770       627.7604 
 559   0.0000      23.199754       631.2974 
 560   0.0000      23.221611       631.8922 
 561   0.0000      23.282659       633.5534 
 562   0.0000      23.327066       634.7617 
 563   0.0000      23.413630       637.1173 
 564   0.0000      32.647351       888.3796 
 565   0.0000      32.827901       893.2926 
 566   0.0000      32.883388       894.8025 
 567   0.0000      43.825266      1192.5461 
 568   0.0000      43.859366      1193.4740 
 569   0.0000      43.907278      1194.7778 
 570   0.0000      43.981068      1196.7857 

                    ********************************
                    * MULLIKEN POPULATION ANALYSIS *
                    ********************************

-----------------------
MULLIKEN ATOMIC CHARGES
-----------------------
   0 N :   -0.209566
   1 H :    0.204462
   2 C :   -0.130252
   3 C :    0.277317
   4 H :    0.125003
   5 H :    0.142612
   6 O :   -0.283385
   7 C :    0.285824
   8 C :   -0.123330
   9 O :   -0.382170
  10 N :   -0.189391
  11 H :    0.163649
  12 H :    0.159849
  13 H :    0.212404
  14 C :    0.316540
  15 C :   -0.177832
  16 O :   -0.397850
  17 H :    0.179269
  18 H :    0.182358
  19 O :   -0.251272
  20 H :    0.239332
  21 N :   -0.075569
  22 H :    0.244493
  23 H :    0.242197
  24 H :    0.245307
Sum of atomic charges:    1.0000000

--------------------------------
MULLIKEN REDUCED ORBITAL CHARGES
--------------------------------
  0 N s       :     3.427038  s :     3.427038
      pz      :     1.101833  p :     3.723730
      px      :     1.156678
      py      :     1.465219
      dz2     :     0.012500  d :     0.055111
      dxz     :     0.017483
      dyz     :     0.010621
      dx2y2   :     0.007873
      dxy     :     0.006633
      f0      :     0.000520  f :     0.003688
      f+1     :     0.000590
      f-1     :     0.000597
      f+2     :     0.000408
      f-2     :     0.000456
      f+3     :     0.000615
      f-3     :     0.000502
  1 H s       :     0.729345  s :     0.729345
      pz      :     0.017492  p :     0.060945
      px      :     0.022241
      py      :     0.021211
      dz2     :     0.001109  d :     0.005248
      dxz     :     0.001128
      dyz     :     0.000736
      dx2y2   :     0.001102
      dxy     :     0.001174
  2 C s       :     3.193811  s :     3.193811
      pz      :     0.769120  p :     2.826987
      px      :     1.082624
      py      :     0.975244
      dz2     :     0.023748  d :     0.102054
      dxz     :     0.016781
      dyz     :     0.030508
      dx2y2   :     0.017768
      dxy     :     0.013249
      f0      :     0.001917  f :     0.007401
      f+1     :     0.001014
      f-1     :     0.001682
      f+2     :     0.000685
      f-2     :     0.000560
      f+3     :     0.000818
      f-3     :     0.000725
  3 C s       :     3.080746  s :     3.080746
      pz      :     0.759188  p :     2.348879
      px      :     0.745603
      py      :     0.844087
      dz2     :     0.024280  d :     0.269456
      dxz     :     0.052468
      dyz     :     0.033889
      dx2y2   :     0.079557
      dxy     :     0.079263
      f0      :     0.001898  f :     0.023602
      f+1     :     0.001897
      f-1     :     0.002373
      f+2     :     0.003623
      f-2     :     0.002185
      f+3     :     0.003813
      f-3     :     0.007814
  4 H s       :     0.840619  s :     0.840619
      pz      :     0.008324  p :     0.032245
      px      :     0.014935
      py      :     0.008986
      dz2     :     0.000252  d :     0.002133
      dxz     :     0.000618
      dyz     :     0.000144
      dx2y2   :     0.000386
      dxy     :     0.000731
  5 H s       :     0.823077  s :     0.823077
      pz      :     0.010479  p :     0.032296
      px      :     0.010310
      py      :     0.011507
      dz2     :     0.000687  d :     0.002014
      dxz     :     0.000290
      dyz     :     0.000240
      dx2y2   :     0.000448
      dxy     :     0.000349
  6 O s       :     3.792668  s :     3.792668
      pz      :     1.359736  p :     4.455941
      px      :     1.679767
      py      :     1.416438
      dz2     :     0.004594  d :     0.032841
      dxz     :     0.002494
      dyz     :     0.009498
      dx2y2   :     0.007912
      dxy     :     0.008342
      f0      :     0.000106  f :     0.001936
      f+1     :     0.000077
      f-1     :     0.000307
      f+2     :     0.000232
      f-2     :     0.000309
      f+3     :     0.000425
      f-3     :     0.000479
[...]
     53      -0.560437   0.000344   0.547944   0.001731  -0.005713  -0.008995
     54      -0.201129   0.000102  -0.207059  -0.000642   0.002978   0.004032
     55      -0.327074  -0.000108  -0.340337  -0.001074  -0.002861   0.005379
     56       0.588225  -0.000224   0.583046   0.001842   0.003183  -0.010123
     57      -0.000015  -0.000017   0.000007  -0.000039  -0.000203   0.000071
     58       0.000026  -0.000011  -0.000020   0.000570   0.000135  -0.000032
     59      -0.000004  -0.000001   0.000003   0.000039  -0.000113   0.000048
     60       0.000257   0.000203  -0.000109   0.002352   0.003216  -0.001083
     61      -0.000408   0.000006   0.000241   0.002414  -0.002290   0.000644
     62       0.000007   0.000003  -0.000030   0.000769   0.001633  -0.000760
     63      -0.000145  -0.000069   0.000323  -0.000003  -0.028663   0.013127
     64       0.001239  -0.000135  -0.000224  -0.000004   0.050507  -0.011217
     65       0.000151  -0.000017   0.002369   0.000006   0.012939   0.080205
     66       0.000237  -0.000025  -0.003552  -0.000022   0.120889   0.118282
     67       0.001742  -0.000184  -0.004783  -0.000024  -0.278240  -0.273677
     68       0.005783  -0.000266  -0.010959  -0.000082  -0.662135  -0.611110
     69      -0.021779   0.000713   0.000054   0.000007  -0.026333   0.002857
     70      -0.027828   0.002380  -0.000042   0.000113  -0.024366   0.000724
     71       0.000042   0.000335  -0.000771  -0.000001   0.001515   0.010114
     72      -0.001405   0.000135   0.000627   0.000029   0.279363  -0.301233
     73       0.003153  -0.000256   0.006912  -0.000025  -0.388349   0.427289
     74      -0.005232   0.000311  -0.009479   0.000027   0.485546  -0.507156
                 72         73         74    
      0      -0.000150   0.003274   0.019618
      1       0.000259  -0.007611  -0.050583
      2       0.000366  -0.009577  -0.048413
      3       0.002116  -0.049919  -0.265688
      4      -0.005221   0.128207   0.674152
      5      -0.004918   0.123026   0.659443
      6      -0.000038   0.000313   0.000295
      7       0.000078  -0.000909  -0.000745
      8      -0.000058   0.000920   0.000983
      9       0.000226  -0.001633   0.000307
     10      -0.000323   0.003283  -0.000522
     11       0.000127  -0.000956   0.000300
     12       0.000276  -0.002896   0.000167
     13       0.000145  -0.000003   0.008773
     14       0.000200  -0.002624  -0.000685
     15       0.000033  -0.000528  -0.005589
     16       0.000024  -0.000646   0.001900
     17       0.000024   0.000351   0.005819
     18      -0.000118   0.000900  -0.000116
     19       0.000186  -0.001761   0.000267
     20      -0.000069   0.000553  -0.000090
     21      -0.000099   0.001365  -0.000271
     22       0.000417  -0.004977   0.001642
     23       0.000096  -0.002254  -0.000985
     24      -0.000803  -0.000370   0.000168
     25       0.000735   0.000328  -0.000302
     26      -0.000744   0.000127   0.000000
     27      -0.000040  -0.000098  -0.000281
     28      -0.000105   0.002381   0.000709
     29      -0.000236   0.002129   0.000263
     30      -0.058505  -0.005790   0.000635
     31      -0.043516  -0.004359   0.000484
     32      -0.005340  -0.000483   0.000041
     33       0.005169   0.000472  -0.001093
     34      -0.002386  -0.000390   0.001362
     35      -0.000922   0.001958   0.000471
     36       0.006123   0.000759  -0.000015
     37       0.007647   0.000858   0.000562
     38       0.002625   0.000959   0.000454
     39       0.787268   0.079401  -0.009122
     40       0.596546   0.060081  -0.006854
     41       0.092042   0.008508  -0.000667
     42       0.000653  -0.000149   0.000083
     43      -0.001434   0.000010  -0.000056
     44      -0.000718  -0.000208   0.000074
     45      -0.000231  -0.000077   0.000026
     46       0.000127  -0.000004   0.000008
     47       0.000002  -0.000013   0.000011
     48       0.001141   0.000205  -0.000061
     49       0.000336  -0.000005   0.000021
     50      -0.000145   0.000033  -0.000028
     51       0.001847   0.000425  -0.000133
     52       0.000982   0.000584  -0.000233
     53       0.000924   0.000182  -0.000066
     54       0.000281   0.000262  -0.000115
     55       0.000281   0.000058  -0.000017
     56       0.000356  -0.000011   0.000030
     57       0.004747  -0.045834   0.008656
     58      -0.003131   0.029858  -0.005705
     59       0.002943  -0.028325   0.005358
     60      -0.075090   0.725394  -0.137388
     61       0.050117  -0.479530   0.091159
     62      -0.045819   0.442364  -0.084621
     63      -0.000011   0.000117  -0.000061
     64      -0.000401  -0.000350   0.000166
     65      -0.000082   0.000042  -0.000040
     66      -0.000430  -0.000540   0.000228
     67       0.001102   0.001014  -0.000412
     68       0.002458   0.001971  -0.000757
     69       0.000716   0.000136  -0.000024
     70       0.004160   0.002130  -0.000977
     71       0.000446   0.000091  -0.000008
     72      -0.000579  -0.001596   0.000839
     73       0.001084   0.002204  -0.001131
     74      -0.001278  -0.002667   0.001396


-----------
IR SPECTRUM
-----------

 Mode   freq       eps      Int      T**2         TX        TY        TZ
       cm**-1   L/(mol*cm) km/mol    a.u.
----------------------------------------------------------------------------
  6:     28.69   0.001366    6.90  0.014860  (-0.102016  0.041268 -0.052441)
  7:     33.30   0.001735    8.77  0.016262  (-0.055654  0.067233 -0.092977)
  8:     60.38   0.005066   25.60  0.026185  ( 0.011918  0.033224 -0.157921)
  9:     65.16   0.000842    4.25  0.004031  ( 0.005482 -0.020209  0.059937)
 10:     79.31   0.000945    4.77  0.003717  ( 0.017999  0.011556  0.057090)
 11:     98.97   0.001437    7.26  0.004531  (-0.033912 -0.000864  0.058136)
 12:    156.44   0.003493   17.65  0.006968  (-0.073319 -0.017969 -0.035635)
 13:    214.67   0.000615    3.11  0.000894  ( 0.000527 -0.028780 -0.008119)
 14:    228.92   0.002072   10.47  0.002825  ( 0.017027  0.049683  0.008136)
 15:    270.95   0.000563    2.85  0.000649  ( 0.019509  0.016360 -0.000740)
 16:    283.20   0.000132    0.67  0.000146  (-0.010964  0.004953  0.000890)
 17:    330.38   0.002816   14.23  0.002660  (-0.000815 -0.049917  0.012940)
 18:    348.35   0.004726   23.88  0.004234  ( 0.012627  0.007336 -0.063406)
 19:    408.61   0.035866  181.25  0.027392  (-0.096060  0.134359 -0.010577)
 20:    455.18   0.005990   30.27  0.004107  ( 0.009530 -0.031723 -0.054861)
 21:    490.50   0.013868   70.09  0.008823  ( 0.091262  0.019932  0.009866)
 22:    523.31   0.000458    2.31  0.000273  (-0.011434 -0.011784 -0.001806)
 23:    560.62   0.010343   52.27  0.005758  (-0.039983 -0.018630  0.061740)
 24:    593.92   0.001385    7.00  0.000728  (-0.012051 -0.005322 -0.023541)
 25:    607.06   0.007001   35.38  0.003599  ( 0.035649  0.016968 -0.045167)
 26:    610.36   0.004314   21.80  0.002205  ( 0.013350  0.028962 -0.034474)
 27:    710.45   0.005107   25.81  0.002243  ( 0.011477  0.001693 -0.045919)
 28:    723.95   0.001644    8.31  0.000709  (-0.002150  0.000257 -0.026534)
 29:    737.19   0.019540   98.75  0.008271  (-0.014700  0.000766  0.089749)
 30:    783.73   0.000695    3.51  0.000277  ( 0.010263 -0.002709 -0.012806)
 31:    879.57   0.006517   32.93  0.002312  (-0.015029  0.045645 -0.001683)
 32:    888.62   0.001904    9.62  0.000669  ( 0.008992 -0.022363 -0.009362)
 33:    923.15   0.001108    5.60  0.000374  ( 0.008776  0.016994  0.002931)
 34:    932.94   0.003345   16.90  0.001119  ( 0.004277 -0.008047  0.032183)
 35:   1019.32   0.001186    5.99  0.000363  ( 0.016400 -0.009112 -0.003343)
 36:   1036.27   0.000867    4.38  0.000261  (-0.015920  0.002201 -0.001638)
 37:   1053.72   0.001429    7.22  0.000423  ( 0.017072 -0.011408  0.001231)
 38:   1071.01   0.006433   32.51  0.001874  ( 0.019461 -0.037664 -0.008777)
 39:   1112.62   0.006476   32.73  0.001816  (-0.010203  0.040547 -0.008260)
 40:   1117.84   0.012777   64.57  0.003567  (-0.011980  0.058479  0.001884)
 41:   1129.47   0.003551   17.94  0.000981  ( 0.004773 -0.029922 -0.007928)
 42:   1241.25   0.004479   22.63  0.001126  (-0.016019 -0.026044 -0.013823)
 43:   1282.31   0.004963   25.08  0.001208  ( 0.006837 -0.029208  0.017548)
 44:   1294.49   0.015172   76.67  0.003657  (-0.024616  0.037513 -0.040550)
 45:   1311.85   0.005521   27.90  0.001313  (-0.018648  0.030717  0.004708)
 46:   1317.43   0.002498   12.62  0.000592  ( 0.010941 -0.007589  0.020355)
 47:   1324.85   0.001071    5.41  0.000252  ( 0.001296 -0.006559  0.014409)
 48:   1377.96   0.007127   36.02  0.001614  ( 0.009642  0.031938  0.022386)
 49:   1383.27   0.016114   81.43  0.003635  (-0.044115  0.040364  0.007744)
 50:   1400.93   0.001893    9.57  0.000422  ( 0.009957 -0.002027  0.017843)
 51:   1417.04   0.040959  206.99  0.009020  ( 0.026342  0.088908  0.020533)
 52:   1446.59   0.065180  329.39  0.014061  ( 0.115482 -0.026539 -0.004513)
 53:   1479.32   0.003429   17.33  0.000723  ( 0.002586  0.013086  0.023353)
 54:   1483.66   0.003821   19.31  0.000804  (-0.021894  0.017711  0.003249)
 55:   1503.45   0.014735   74.46  0.003058  ( 0.037019 -0.041043 -0.001872)
 56:   1595.34   0.053208  268.89  0.010408  ( 0.021441 -0.081272  0.057820)
 57:   1604.99   0.022998  116.22  0.004472  ( 0.045924 -0.048219 -0.006116)
 58:   1650.29   0.008032   40.59  0.001519  (-0.008445  0.036219  0.011651)
 59:   1668.44   0.006385   32.27  0.001194  (-0.006745  0.012311 -0.031579)
 60:   1745.44   0.045849  231.70  0.008197  (-0.006518 -0.085352 -0.029490)
 61:   1797.52   0.043435  219.50  0.007541  ( 0.084674 -0.018702 -0.004607)
 62:   1894.66   0.081627  412.51  0.013444  (-0.067568  0.077375 -0.053778)
 63:   2928.81   0.080036  404.47  0.008528  (-0.009686  0.091723  0.004565)
 64:   3103.92   0.000736    3.72  0.000074  ( 0.003754  0.003100 -0.007095)
 65:   3117.68   0.001439    7.27  0.000144  ( 0.006847 -0.008687  0.004654)
 66:   3130.79   0.001094    5.53  0.000109  ( 0.001321 -0.010330 -0.000746)
 67:   3172.55   0.000097    0.49  0.000010  (-0.002653 -0.001131 -0.001124)
 68:   3193.73   0.000423    2.14  0.000041  ( 0.000959 -0.000042  0.006353)
 69:   3193.85   0.000076    0.39  0.000007  ( 0.000246 -0.002722 -0.000069)
 70:   3511.41   0.024522  123.92  0.002179  ( 0.026425 -0.037927 -0.006528)
 71:   3571.98   0.021546  108.88  0.001882  (-0.007400  0.006574 -0.042242)
 72:   3650.07   0.010995   55.56  0.000940  ( 0.025605  0.015484 -0.006683)
 73:   3657.74   0.070800  357.80  0.006040  ( 0.047143 -0.028128  0.055015)
 74:   3671.33   0.019125   96.65  0.001626  (-0.018262  0.035753  0.003722)

* The epsilon (eps) is given for a Dirac delta lineshape.
** The dipole moment derivative (T) already includes vibrational overlap.

The first frequency considered to be a vibration is 6
The total number of vibrations considered is 69


--------------------------
THERMOCHEMISTRY AT 298.15K
--------------------------

Temperature         ... 298.15 K
Pressure            ... 1.00 atm
Total Mass          ... 190.18 AMU

Throughout the following assumptions are being made:
  (1) The electronic state is orbitally nondegenerate
  (2) There are no thermally accessible electronically excited states
  (3) Hindered rotations indicated by low frequency modes are not
      treated as such but are treated as vibrations and this may
      cause some error
  (4) All equations used are the standard statistical mechanics
      equations for an ideal gas
  (5) All vibrations are strictly harmonic

freq.      28.69  E(vib)   ...       0.55 
freq.      33.30  E(vib)   ...       0.55 
freq.      60.38  E(vib)   ...       0.51 
freq.      65.16  E(vib)   ...       0.50 
freq.      79.31  E(vib)   ...       0.49 
freq.      98.97  E(vib)   ...       0.46 
freq.     156.44  E(vib)   ...       0.40 
freq.     214.67  E(vib)   ...       0.34 
freq.     228.92  E(vib)   ...       0.32 
freq.     270.95  E(vib)   ...       0.29 
freq.     283.20  E(vib)   ...       0.28 
freq.     330.38  E(vib)   ...       0.24 
freq.     348.35  E(vib)   ...       0.23 
freq.     408.61  E(vib)   ...       0.19 
freq.     455.18  E(vib)   ...       0.16 
freq.     490.50  E(vib)   ...       0.15 
freq.     523.31  E(vib)   ...       0.13 
freq.     560.62  E(vib)   ...       0.11 
freq.     593.92  E(vib)   ...       0.10 
freq.     607.06  E(vib)   ...       0.10 
freq.     610.36  E(vib)   ...       0.10 
freq.     710.45  E(vib)   ...       0.07 
freq.     723.95  E(vib)   ...       0.06 
freq.     737.19  E(vib)   ...       0.06 
freq.     783.73  E(vib)   ...       0.05 
freq.     879.57  E(vib)   ...       0.04 
freq.     888.62  E(vib)   ...       0.04 
freq.     923.15  E(vib)   ...       0.03 
freq.     932.94  E(vib)   ...       0.03 
freq.    1019.32  E(vib)   ...       0.02 
freq.    1036.27  E(vib)   ...       0.02 
freq.    1053.72  E(vib)   ...       0.02 
freq.    1071.01  E(vib)   ...       0.02 
freq.    1112.62  E(vib)   ...       0.01 
freq.    1117.84  E(vib)   ...       0.01 
freq.    1129.47  E(vib)   ...       0.01 
freq.    1241.25  E(vib)   ...       0.01 
freq.    1282.31  E(vib)   ...       0.01 
freq.    1294.49  E(vib)   ...       0.01 
freq.    1311.85  E(vib)   ...       0.01 
freq.    1317.43  E(vib)   ...       0.01 
freq.    1324.85  E(vib)   ...       0.01 
freq.    1377.96  E(vib)   ...       0.01 
freq.    1383.27  E(vib)   ...       0.00 
freq.    1400.93  E(vib)   ...       0.00 
freq.    1417.04  E(vib)   ...       0.00 
freq.    1446.59  E(vib)   ...       0.00 
freq.    1479.32  E(vib)   ...       0.00 
freq.    1483.66  E(vib)   ...       0.00 
freq.    1503.45  E(vib)   ...       0.00 
freq.    1595.34  E(vib)   ...       0.00 
freq.    1604.99  E(vib)   ...       0.00 
freq.    1650.29  E(vib)   ...       0.00 
freq.    1668.44  E(vib)   ...       0.00 
freq.    1745.44  E(vib)   ...       0.00 
freq.    1797.52  E(vib)   ...       0.00 
freq.    1894.66  E(vib)   ...       0.00 
freq.    2928.81  E(vib)   ...       0.00 
freq.    3103.92  E(vib)   ...       0.00 
freq.    3117.68  E(vib)   ...       0.00 
freq.    3130.79  E(vib)   ...       0.00 
freq.    3172.55  E(vib)   ...       0.00 
freq.    3193.73  E(vib)   ...       0.00 
freq.    3193.85  E(vib)   ...       0.00 
freq.    3511.41  E(vib)   ...       0.00 
freq.    3571.98  E(vib)   ...       0.00 
freq.    3650.07  E(vib)   ...       0.00 
freq.    3657.74  E(vib)   ...       0.00 
freq.    3671.33  E(vib)   ...       0.00 

------------
INNER ENERGY
------------

The inner energy is: U= E(el) + E(ZPE) + E(vib) + E(rot) + E(trans)
    E(el)   - is the total energy from the electronic structure calculation
              = E(kin-el) + E(nuc-el) + E(el-el) + E(nuc-nuc)
    E(ZPE)  - the the zero temperature vibrational energy from the frequency calculation
    E(vib)  - the the finite temperature correction to E(ZPE) due to population
              of excited vibrational states
    E(rot)  - is the rotational thermal energy
    E(trans)- is the translational thermal energy

Summary of contributions to the inner energy U:
Electronic energy                ...   -701.33360758 Eh
Zero point energy                ...      0.20889213 Eh     131.08 kcal/mol
Thermal vibrational correction   ...      0.01080385 Eh       6.78 kcal/mol
Thermal rotational correction    ...      0.00141627 Eh       0.89 kcal/mol
Thermal translational correction ...      0.00141627 Eh       0.89 kcal/mol
-----------------------------------------------------------------------
Total thermal energy                   -701.11107905 Eh


Summary of corrections to the electronic energy:
(perhaps to be used in another calculation)
Total thermal correction                  0.01363639 Eh       8.56 kcal/mol
Non-thermal (ZPE) correction              0.20889213 Eh     131.08 kcal/mol
-----------------------------------------------------------------------
Total correction                          0.22252853 Eh     139.64 kcal/mol


--------
ENTHALPY
--------

The enthalpy is H = U + kB*T
                kB is Boltzmann's constant
Total free energy                 ...   -701.11107905 Eh 
Thermal Enthalpy correction       ...      0.00094421 Eh       0.59 kcal/mol
-----------------------------------------------------------------------
Total Enthalpy                    ...   -701.11013485 Eh


Note: Only C1 symmetry has been detected, increase convergence thresholds 
      if your molecule has a higher symmetry. Symmetry factor of 1.0 is   
      used for the rotational entropy correction. 
 

Note: Rotational entropy computed according to Herzberg 
Infrared and Raman Spectra, Chapter V,1, Van Nostrand Reinhold, 1945 
Point Group:  C1, Symmetry Number:   1  
Rotational constants in cm-1:     0.065774     0.010806     0.010239 

Vibrational entropy computed according to the QRRHO of S. Grimme
Chem.Eur.J. 2012 18 9955


-------
ENTROPY
-------

The entropy contributions are T*S = T*(S(el)+S(vib)+S(rot)+S(trans))
     S(el)   - electronic entropy
     S(vib)  - vibrational entropy
     S(rot)  - rotational entropy
     S(trans)- translational entropy
The entropies will be listed as multiplied by the temperature to get
units of energy

Electronic entropy                ...      0.00000000 Eh      0.00 kcal/mol
Vibrational entropy               ...      0.01937477 Eh     12.16 kcal/mol
Rotational entropy                ...      0.01509597 Eh      9.47 kcal/mol
Translational entropy             ...      0.01978162 Eh     12.41 kcal/mol
-----------------------------------------------------------------------
Final entropy term                ...      0.05425236 Eh     34.04 kcal/mol

In case the symmetry of your molecule has not been determined correctly
or in case you have a reason to use a different symmetry number we print 
out the resulting rotational entropy values for sn=1,12 :
 --------------------------------------------------------
|  sn= 1 | S(rot)=       0.01509597 Eh      9.47 kcal/mol|
|  sn= 2 | S(rot)=       0.01444152 Eh      9.06 kcal/mol|
|  sn= 3 | S(rot)=       0.01405869 Eh      8.82 kcal/mol|
|  sn= 4 | S(rot)=       0.01378706 Eh      8.65 kcal/mol|
|  sn= 5 | S(rot)=       0.01357637 Eh      8.52 kcal/mol|
|  sn= 6 | S(rot)=       0.01340423 Eh      8.41 kcal/mol|
|  sn= 7 | S(rot)=       0.01325868 Eh      8.32 kcal/mol|
|  sn= 8 | S(rot)=       0.01313261 Eh      8.24 kcal/mol|
|  sn= 9 | S(rot)=       0.01302140 Eh      8.17 kcal/mol|
|  sn=10 | S(rot)=       0.01292192 Eh      8.11 kcal/mol|
|  sn=11 | S(rot)=       0.01283193 Eh      8.05 kcal/mol|
|  sn=12 | S(rot)=       0.01274977 Eh      8.00 kcal/mol|
 --------------------------------------------------------


-------------------
GIBBS FREE ENERGY
-------------------

The Gibbs free energy is G = H - T*S

Total enthalpy                    ...   -701.11013485 Eh 
Total entropy correction          ...     -0.05425236 Eh    -34.04 kcal/mol
-----------------------------------------------------------------------
Final Gibbs free energy         ...   -701.16438721 Eh

For completeness - the Gibbs free energy minus the electronic energy
G-E(el)                           ...      0.16922037 Eh    106.19 kcal/mol


Timings for individual modules:

Sum of individual times         ...    12496.787 sec (= 208.280 min)
GTO integral calculation        ...       48.603 sec (=   0.810 min)   0.4 %
SCF iterations                  ...     5499.667 sec (=  91.661 min)  44.0 %
SCF Gradient evaluation         ...     1033.773 sec (=  17.230 min)   8.3 %
Geometry relaxation             ...        1.970 sec (=   0.033 min)   0.0 %
Analytical frequency calculation...     5421.034 sec (=  90.351 min)  43.4 %
CHELPG charge generation        ...      491.741 sec (=   8.196 min)   3.9 %
                             ****ORCA TERMINATED NORMALLY****
TOTAL RUN TIME: 0 days 3 hours 29 minutes 7 seconds 510 msec
