
Lmod is automatically replacing "intel/2020.1.217" with "gcc/10.3.0".


Due to MODULEPATH changes, the following have been reloaded:
  1) blis/0.8.1     2) flexiblas/3.0.4

The following have been reloaded with a version change:
  1) gcccore/.9.3.0 => gcccore/.10.3.0        3) openmpi/4.0.3 => openmpi/4.1.1
  2) libfabric/1.10.1 => libfabric/1.12.1     4) ucx/1.8.0 => ucx/1.9.0

To execute ORCA, run: 
   ${EBROOTORCA}/orca orca.inp > orca.out

                                 *****************
                                 * O   R   C   A *
                                 *****************

                                            #,                                       
                                            ###                                      
                                            ####                                     
                                            #####                                    
                                            ######                                   
                                           ########,                                 
                                     ,,################,,,,,                         
                               ,,#################################,,                 
                          ,,##########################################,,             
                       ,#########################################, ''#####,          
                    ,#############################################,,   '####,        
                  ,##################################################,,,,####,       
                ,###########''''           ''''###############################       
              ,#####''   ,,,,##########,,,,          '''####'''          '####       
            ,##' ,,,,###########################,,,                        '##       
           ' ,,###''''                  '''############,,,                           
         ,,##''                                '''############,,,,        ,,,,,,###''
      ,#''                                            '''#######################'''  
     '                                                          ''''####''''         
             ,#######,   #######,   ,#######,      ##                                
            ,#'     '#,  ##    ##  ,#'     '#,    #''#        ######   ,####,        
            ##       ##  ##   ,#'  ##            #'  '#       #        #'  '#        
            ##       ##  #######   ##           ,######,      #####,   #    #        
            '#,     ,#'  ##    ##  '#,     ,#' ,#      #,         ##   #,  ,#        
             '#######'   ##     ##  '#######'  #'      '#     #####' # '####'        



                  #######################################################
                  #                        -***-                        #
                  #          Department of theory and spectroscopy      #
                  #    Directorship and core code : Frank Neese         #
                  #        Max Planck Institute fuer Kohlenforschung    #
                  #                Kaiser Wilhelm Platz 1               #
                  #                 D-45470 Muelheim/Ruhr               #
                  #                      Germany                        #
                  #                                                     #
                  #                  All rights reserved                #
                  #                        -***-                        #
                  #######################################################


                         Program Version 5.0.2 -  RELEASE  -


 With contributions from (in alphabetic order):
   Daniel Aravena         : Magnetic Suceptibility
   Michael Atanasov       : Ab Initio Ligand Field Theory (pilot matlab implementation)
   Alexander A. Auer      : GIAO ZORA, VPT2 properties, NMR spectrum
   Ute Becker             : Parallelization
   Giovanni Bistoni       : ED, misc. LED, open-shell LED, HFLD
   Martin Brehm           : Molecular dynamics
   Dmytro Bykov           : SCF Hessian
   Vijay G. Chilkuri      : MRCI spin determinant printing, contributions to CSF-ICE
   Dipayan Datta          : RHF DLPNO-CCSD density
   Achintya Kumar Dutta   : EOM-CC, STEOM-CC
   Dmitry Ganyushin       : Spin-Orbit,Spin-Spin,Magnetic field MRCI
   Miquel Garcia          : C-PCM and meta-GGA Hessian, CC/C-PCM, Gaussian charge scheme
   Yang Guo               : DLPNO-NEVPT2, F12-NEVPT2, CIM, IAO-localization
   Andreas Hansen         : Spin unrestricted coupled pair/coupled cluster methods
   Benjamin Helmich-Paris : MC-RPA, TRAH-SCF, COSX integrals
   Lee Huntington         : MR-EOM, pCC
   Robert Izsak           : Overlap fitted RIJCOSX, COSX-SCS-MP3, EOM
   Marcus Kettner         : VPT2
   Christian Kollmar      : KDIIS, OOCD, Brueckner-CCSD(T), CCSD density, CASPT2, CASPT2-K
   Simone Kossmann        : Meta GGA functionals, TD-DFT gradient, OOMP2, MP2 Hessian
   Martin Krupicka        : Initial AUTO-CI
   Lucas Lang             : DCDCAS
   Marvin Lechner         : AUTO-CI (C++ implementation), FIC-MRCC
   Dagmar Lenk            : GEPOL surface, SMD
   Dimitrios Liakos       : Extrapolation schemes; Compound Job, initial MDCI parallelization
   Dimitrios Manganas     : Further ROCIS development; embedding schemes
   Dimitrios Pantazis     : SARC Basis sets
   Anastasios Papadopoulos: AUTO-CI, single reference methods and gradients
   Taras Petrenko         : DFT Hessian,TD-DFT gradient, ASA, ECA, R-Raman, ABS, FL, XAS/XES, NRVS
   Peter Pinski           : DLPNO-MP2, DLPNO-MP2 Gradient
   Christoph Reimann      : Effective Core Potentials
   Marius Retegan         : Local ZFS, SOC
   Christoph Riplinger    : Optimizer, TS searches, QM/MM, DLPNO-CCSD(T), (RO)-DLPNO pert. Triples
   Tobias Risthaus        : Range-separated hybrids, TD-DFT gradient, RPA, STAB
   Michael Roemelt        : Original ROCIS implementation
   Masaaki Saitow         : Open-shell DLPNO-CCSD energy and density
   Barbara Sandhoefer     : DKH picture change effects
   Avijit Sen             : IP-ROCIS
   Kantharuban Sivalingam : CASSCF convergence, NEVPT2, FIC-MRCI
   Bernardo de Souza      : ESD, SOC TD-DFT
   Georgi Stoychev        : AutoAux, RI-MP2 NMR, DLPNO-MP2 response
   Willem Van den Heuvel  : Paramagnetic NMR
   Boris Wezisla          : Elementary symmetry handling
   Frank Wennmohs         : Technical directorship


 We gratefully acknowledge several colleagues who have allowed us to
 interface, adapt or use parts of their codes:
   Stefan Grimme, W. Hujo, H. Kruse, P. Pracht,  : VdW corrections, initial TS optimization,
                  C. Bannwarth, S. Ehlert          DFT functionals, gCP, sTDA/sTD-DF
   Ed Valeev, F. Pavosevic, A. Kumar             : LibInt (2-el integral package), F12 methods
   Garnet Chan, S. Sharma, J. Yang, R. Olivares  : DMRG
   Ulf Ekstrom                                   : XCFun DFT Library
   Mihaly Kallay                                 : mrcc  (arbitrary order and MRCC methods)
   Jiri Pittner, Ondrej Demel                    : Mk-CCSD
   Frank Weinhold                                : gennbo (NPA and NBO analysis)
   Christopher J. Cramer and Donald G. Truhlar   : smd solvation model
   Lars Goerigk                                  : TD-DFT with DH, B97 family of functionals
   V. Asgeirsson, H. Jonsson                     : NEB implementation
   FAccTs GmbH                                   : IRC, NEB, NEB-TS, DLPNO-Multilevel, CI-OPT
                                                   MM, QMMM, 2- and 3-layer-ONIOM, Crystal-QMMM,
                                                   LR-CPCM, SF, NACMEs, symmetry and pop. for TD-DFT,
                                                   nearIR, NL-DFT gradient (VV10), updates on ESD,
                                                   ML-optimized integration grids
   S Lehtola, MJT Oliveira, MAL Marques          : LibXC Library
   Liviu Ungur et al                             : ANISO software


 Your calculation uses the libint2 library for the computation of 2-el integrals
 For citations please refer to: http://libint.valeyev.net

 Your ORCA version has been built with support for libXC version: 5.1.0
 For citations please refer to: https://tddft.org/programs/libxc/

 This ORCA versions uses:
   CBLAS   interface :  Fast vector & matrix operations
   LAPACKE interface :  Fast linear algebra routines
   SCALAPACK package :  Parallel linear algebra routines
   Shared memory     :  Shared parallel matrices
   BLAS/LAPACK       :  OpenBLAS 0.3.15  USE64BITINT DYNAMIC_ARCH NO_AFFINITY Zen SINGLE_THREADED
        Core in use  :  Zen
   Copyright (c) 2011-2014, The OpenBLAS Project


Your calculation utilizes the atom-pairwise dispersion correction
with the Becke-Johnson damping scheme (D3BJ)
Cite in your paper:
S.Grimme, S.Ehrlich, L.Goerigk, J Comput Chem, (2011), 32, 1456–1465 
S.Grimme, J.Antony, S.Ehrlich and H.Krieg, J.Chem.Phys., 132, (2010), 154104 
   

================================================================================

----- Orbital basis set information -----
Your calculation utilizes the basis: def2-TZVPP
   F. Weigend and R. Ahlrichs, Phys. Chem. Chem. Phys. 7, 3297 (2005).

----- AuxJ basis set information -----
Your calculation utilizes the auxiliary basis: def2/J
   F. Weigend, Phys. Chem. Chem. Phys. 8, 1057 (2006).

================================================================================
                                        WARNINGS
                       Please study these warnings very carefully!
================================================================================


WARNING: Geometry Optimization
  ===> : Switching off AutoStart
         For restart on a previous wavefunction, please use MOREAD

INFO   : the flag for use of the SHARK integral package has been found!

================================================================================
                                       INPUT FILE
================================================================================
NAME = GGG-H_tt_006_OptFreq.inp
|  1> # GGG-H_tt_006 (old 029)
|  2> ! wB97X-D3BJ Opt Freq def2-TZVPP def2/J RIJCOSX VeryTightSCF
|  3> ! PAL8 defgrid3 VeryTightOpt
|  4> 
|  5> %maxcore 4096
|  6> 
|  7> %geom
|  8>   MaxIter 300
|  9>   # MaxStep 0.1
| 10>   Calc_Hess true
| 11>   Recalc_Hess 10
| 12> end
| 13> 
| 14> %chelpg
| 15>   grid 0.1
| 16>   rmax 3.0
| 17> end
| 18> 
| 19> * xyz 1 1 
| 20>  N   -3.221345   +1.626671   +0.396179
| 21>  H   -2.964892   +2.608657   +0.495263
| 22>  C   -4.639852   +1.262363   +0.543701
| 23>  C   -4.965959   +0.648413   +1.928983
| 24>  H   -5.243589   +2.170362   +0.422253
| 25>  H   -4.895463   +0.541364   -0.253216
| 26>  O   -5.733390   +1.168037   +2.700525
| 27>  C   -2.262229   +0.705664   +0.217203
| 28>  C   -0.821411   +1.202124   +0.025413
| 29>  O   -2.487990   -0.520491   +0.189716
| 30>  N   +0.000000   +0.000000   +0.000000
| 31>  H   -0.510470   +1.870678   +0.847788
| 32>  H   -0.727000   +1.765269   -0.921509
| 33>  H   -0.578543   -0.857934   +0.018235
| 34>  C   +1.326422   +0.000000   +0.000000
| 35>  C   +2.059463   -1.370464   +0.003360
| 36>  O   +2.053534   +1.012950   +0.000000
| 37>  H   +1.829186   -1.965804   -0.893046
| 38>  H   +1.823953   -1.962440   +0.900665
| 39>  O   -4.327850   -0.507514   +2.198906
| 40>  H   -3.759371   -0.768629   +1.429742
| 41>  N   +3.502230   -0.964859   +0.006480
| 42>  H   +4.026132   -1.268792   -0.826088
| 43>  H   +3.354949   +0.133436   +0.002896
| 44>  H   +4.019668   -1.261073   +0.845959
| 45> *
| 46> 
| 47>                          ****END OF INPUT****
================================================================================

                       *****************************
                       * Geometry Optimization Run *
                       *****************************

Geometry optimization settings:
Update method            Update   .... BFGS
Choice of coordinates    CoordSys .... Z-matrix Internals
Initial Hessian          InHess   .... Almoef's Model

Convergence Tolerances:
Energy Change            TolE     ....  2.0000e-07 Eh
Max. Gradient            TolMAXG  ....  3.0000e-05 Eh/bohr
RMS Gradient             TolRMSG  ....  8.0000e-06 Eh/bohr
Max. Displacement        TolMAXD  ....  2.0000e-04 bohr
RMS Displacement         TolRMSD  ....  1.0000e-04 bohr
Strict Convergence                ....  False
------------------------------------------------------------------------------
                        ORCA OPTIMIZATION COORDINATE SETUP
------------------------------------------------------------------------------

The optimization will be done in new redundant internal coordinates
Making redundant internal coordinates   ...  (new redundants) done
Evaluating the initial hessian          ...  (Is done on the fly) done
Evaluating the coordinates              ...  done
Calculating the B-matrix                .... done
Calculating the G-matrix                .... done
Diagonalizing the G-matrix              .... done
Small eigenvalue found = 4.712e-03
Small eigenvalue found = 1.561e-02
Small eigenvalue found = 2.840e-02
The first mode is                       ....   44
The number of degrees of freedom        ....   69

    -----------------------------------------------------------------
                    Redundant Internal Coordinates


    -----------------------------------------------------------------
         Definition                    Initial Value    d2E/dq (diagonal element)
    -----------------------------------------------------------------
      1. B(H   1,N   0)                  1.0197         0.000000   
      2. B(C   2,N   0)                  1.4720         0.000000   
      3. B(C   3,C   2)                  1.5499         0.000000   
      4. B(H   4,C   2)                  1.0971         0.000000   
      5. B(H   5,C   2)                  1.1047         0.000000   
      6. B(O   6,C   3)                  1.2059         0.000000   
      7. B(C   7,N   0)                  1.3417         0.000000   
      8. B(C   8,C   7)                  1.5360         0.000000   
      9. B(O   9,C   7)                  1.2471         0.000000   
     10. B(N  10,C   8)                  1.4562         0.000000   
     11. B(H  11,C   8)                  1.1045         0.000000   
     12. B(H  12,C   8)                  1.1058         0.000000   
     13. B(H  13,N  10)                  1.0349         0.000000   
     14. B(C  14,N  10)                  1.3264         0.000000   
     15. B(C  15,C  14)                  1.5542         0.000000   
     16. B(O  16,C  14)                  1.2469         0.000000   
     17. B(H  17,C  15)                  1.1005         0.000000   
     18. B(H  18,C  15)                  1.1005         0.000000   
     19. B(O  19,C   3)                  1.3477         0.000000   
     20. B(H  20,O  19)                  0.9914         0.000000   
     21. B(N  21,C  15)                  1.4987         0.000000   
     22. B(H  22,N  21)                  1.0296         0.000000   
     23. B(H  23,N  21)                  1.1081         0.000000   
     24. B(H  24,N  21)                  1.0297         0.000000   
     25. A(H   1,N   0,C   2)          118.0962         0.000000   
     26. A(C   2,N   0,C   7)          122.1653         0.000000   
     27. A(H   1,N   0,C   7)          119.6177         0.000000   
     28. A(C   3,C   2,H   5)          109.7281         0.000000   
     29. A(C   3,C   2,H   4)          108.1185         0.000000   
     30. A(N   0,C   2,H   4)          108.3232         0.000000   
     31. A(N   0,C   2,C   3)          112.9778         0.000000   
     32. A(N   0,C   2,H   5)          108.1939         0.000000   
     33. A(H   4,C   2,H   5)          109.4500         0.000000   
     34. A(O   6,C   3,O  19)          122.8723         0.000000   
     35. A(C   2,C   3,O  19)          114.7807         0.000000   
     36. A(C   2,C   3,O   6)          122.3469         0.000000   
     37. A(C   8,C   7,O   9)          119.0038         0.000000   
     38. A(N   0,C   7,O   9)          123.2614         0.000000   
     39. A(N   0,C   7,C   8)          117.7324         0.000000   
     40. A(C   7,C   8,H  11)          111.5155         0.000000   
     41. A(C   7,C   8,N  10)          105.3366         0.000000   
     42. A(H  11,C   8,H  12)          107.7764         0.000000   
     43. A(N  10,C   8,H  12)          110.9358         0.000000   
     44. A(C   7,C   8,H  12)          110.5872         0.000000   
     45. A(N  10,C   8,H  11)          110.7249         0.000000   
     46. A(H  13,N  10,C  14)          123.9875         0.000000   
     47. A(C   8,N  10,C  14)          124.3388         0.000000   
     48. A(C   8,N  10,H  13)          111.6357         0.000000   
     49. A(C  15,C  14,O  16)          116.1869         0.000000   
     50. A(N  10,C  14,O  16)          125.6714         0.000000   
     51. A(N  10,C  14,C  15)          118.1416         0.000000   
     52. A(H  17,C  15,H  18)          109.1711         0.000000   
     53. A(C  14,C  15,H  18)          112.0341         0.000000   
     54. A(C  14,C  15,H  17)          112.1221         0.000000   
     55. A(H  18,C  15,N  21)          110.4815         0.000000   
     56. A(H  17,C  15,N  21)          110.4602         0.000000   
     57. A(C  14,C  15,N  21)          102.4396         0.000000   
     58. A(C   3,O  19,H  20)          109.9991         0.000000   
     59. A(H  23,N  21,H  24)          110.7661         0.000000   
     60. A(H  22,N  21,H  24)          108.5814         0.000000   
     61. A(C  15,N  21,H  24)          114.0551         0.000000   
     62. A(H  22,N  21,H  23)          110.9528         0.000000   
     63. A(C  15,N  21,H  23)           98.0640         0.000000   
     64. A(C  15,N  21,H  22)          114.0973         0.000000   
     65. D(H   4,C   2,N   0,C   7)   -165.8878         0.000000   
     66. D(H   5,C   2,N   0,C   7)    -47.3284         0.000000   
     67. D(H   5,C   2,N   0,H   1)    136.6855         0.000000   
     68. D(H   4,C   2,N   0,H   1)     18.1261         0.000000   
     69. D(C   3,C   2,N   0,H   1)   -101.6259         0.000000   
     70. D(C   3,C   2,N   0,C   7)     74.3602         0.000000   
     71. D(O   6,C   3,C   2,H   4)     -2.1415         0.000000   
     72. D(O  19,C   3,C   2,H   5)     58.4435         0.000000   
     73. D(O  19,C   3,C   2,H   4)    177.7539         0.000000   
     74. D(O   6,C   3,C   2,H   5)   -121.4518         0.000000   
     75. D(O  19,C   3,C   2,N   0)    -62.3766         0.000000   
     76. D(O   6,C   3,C   2,N   0)    117.7281         0.000000   
     77. D(O   9,C   7,N   0,H   1)    174.3854         0.000000   
     78. D(C   8,C   7,N   0,C   2)    177.8904         0.000000   
     79. D(C   8,C   7,N   0,H   1)     -6.1828         0.000000   
     80. D(O   9,C   7,N   0,C   2)     -1.5415         0.000000   
     81. D(H  12,C   8,C   7,O   9)    113.5274         0.000000   
     82. D(H  12,C   8,C   7,N   0)    -65.9294         0.000000   
     83. D(H  11,C   8,C   7,O   9)   -126.5628         0.000000   
     84. D(N  10,C   8,C   7,O   9)     -6.3938         0.000000   
     85. D(N  10,C   8,C   7,N   0)    174.1494         0.000000   
     86. D(H  11,C   8,C   7,N   0)     53.9804         0.000000   
     87. D(C  14,N  10,C   8,H  12)     68.1567         0.000000   
     88. D(C  14,N  10,C   8,H  11)    -51.4640         0.000000   
     89. D(C  14,N  10,C   8,C   7)   -172.1528         0.000000   
     90. D(H  13,N  10,C   8,H  12)   -114.0096         0.000000   
     91. D(H  13,N  10,C   8,H  11)    126.3698         0.000000   
     92. D(H  13,N  10,C   8,C   7)      5.6809         0.000000   
     93. D(O  16,C  14,N  10,C   8)     -1.2111         0.000000   
     94. D(C  15,C  14,N  10,H  13)      1.0771         0.000000   
     95. D(C  15,C  14,N  10,C   8)    178.6485         0.000000   
     96. D(O  16,C  14,N  10,H  13)   -178.7824         0.000000   
     97. D(N  21,C  15,C  14,O  16)      0.0339         0.000000   
     98. D(N  21,C  15,C  14,N  10)   -179.8389         0.000000   
     99. D(H  18,C  15,C  14,O  16)    118.4471         0.000000   
    100. D(H  18,C  15,C  14,N  10)    -61.4257         0.000000   
    101. D(H  17,C  15,C  14,O  16)   -118.3956         0.000000   
    102. D(H  17,C  15,C  14,N  10)     61.7316         0.000000   
    103. D(H  20,O  19,C   3,O   6)    178.9548         0.000000   
    104. D(H  20,O  19,C   3,C   2)     -0.9400         0.000000   
    105. D(H  24,N  21,C  15,H  18)     -2.5179         0.000000   
    106. D(H  24,N  21,C  15,H  17)   -123.4158         0.000000   
    107. D(H  24,N  21,C  15,C  14)    116.9869         0.000000   
    108. D(H  23,N  21,C  15,H  18)   -119.6083         0.000000   
    109. D(H  23,N  21,C  15,H  17)    119.4938         0.000000   
    110. D(H  23,N  21,C  15,C  14)     -0.1035         0.000000   
    111. D(H  22,N  21,C  15,H  18)    123.0679         0.000000   
    112. D(H  22,N  21,C  15,H  17)      2.1700         0.000000   
    113. D(H  22,N  21,C  15,C  14)   -117.4273         0.000000   
    -----------------------------------------------------------------

Number of atoms                         .... 25
Number of degrees of freedom            .... 113

         *************************************************************
         *                GEOMETRY OPTIMIZATION CYCLE   1            *
         *************************************************************
---------------------------------
CARTESIAN COORDINATES (ANGSTROEM)
---------------------------------
  N     -3.221345    1.626671    0.396179
  H     -2.964892    2.608657    0.495263
  C     -4.639852    1.262363    0.543701
  C     -4.965959    0.648413    1.928983
  H     -5.243589    2.170362    0.422253
  H     -4.895463    0.541364   -0.253216
  O     -5.733390    1.168037    2.700525
  C     -2.262229    0.705664    0.217203
  C     -0.821411    1.202124    0.025413
  O     -2.487990   -0.520491    0.189716
  N      0.000000    0.000000    0.000000
  H     -0.510470    1.870678    0.847788
  H     -0.727000    1.765269   -0.921509
  H     -0.578543   -0.857934    0.018235
  C      1.326422    0.000000    0.000000
  C      2.059463   -1.370464    0.003360
  O      2.053534    1.012950    0.000000
  H      1.829186   -1.965804   -0.893046
  H      1.823953   -1.962440    0.900665
  O     -4.327850   -0.507514    2.198906
  H     -3.759371   -0.768629    1.429742
  N      3.502230   -0.964859    0.006480
  H      4.026132   -1.268792   -0.826088
  H      3.354949    0.133436    0.002896
  H      4.019668   -1.261073    0.845959

----------------------------
CARTESIAN COORDINATES (A.U.)
----------------------------
  NO LB      ZA    FRAG     MASS         X           Y           Z
   0 N     7.0000    0    14.007   -6.087460    3.073963    0.748670
   1 H     1.0000    0     1.008   -5.602834    4.929647    0.935911
   2 C     6.0000    0    12.011   -8.768050    2.385520    1.027446
   3 C     6.0000    0    12.011   -9.384303    1.225323    3.645250
   4 H     1.0000    0     1.008   -9.908947    4.101390    0.797943
   5 H     1.0000    0     1.008   -9.251084    1.023030   -0.478509
   6 O     8.0000    0    15.999  -10.834537    2.207270    5.103253
   7 C     6.0000    0    12.011   -4.274993    1.333512    0.410454
   8 C     6.0000    0    12.011   -1.552242    2.271685    0.048024
   9 O     8.0000    0    15.999   -4.701620   -0.983585    0.358511
  10 N     7.0000    0    14.007    0.000000    0.000000    0.000000
  11 H     1.0000    0     1.008   -0.964648    3.535069    1.602087
  12 H     1.0000    0     1.008   -1.373831    3.335875   -1.741400
  13 H     1.0000    0     1.008   -1.093288   -1.621260    0.034459
  14 C     6.0000    0    12.011    2.506574    0.000000    0.000000
  15 C     6.0000    0    12.011    3.891821   -2.589802    0.006349
  16 O     8.0000    0    15.999    3.880617    1.914198    0.000000
  17 H     1.0000    0     1.008    3.456661   -3.714831   -1.687612
  18 H     1.0000    0     1.008    3.446772   -3.708474    1.702010
  19 O     8.0000    0    15.999   -8.178451   -0.959062    4.155330
  20 H     1.0000    0     1.008   -7.104182   -1.452498    2.701821
  21 N     7.0000    0    14.007    6.618256   -1.823319    0.012245
  22 H     1.0000    0     1.008    7.608287   -2.397669   -1.561080
  23 H     1.0000    0     1.008    6.339935    0.252157    0.005473
  24 H     1.0000    0     1.008    7.596072   -2.383083    1.598631

--------------------------------
INTERNAL COORDINATES (ANGSTROEM)
--------------------------------
 N      0   0   0     0.000000000000     0.00000000     0.00000000
 H      1   0   0     1.019746186294     0.00000000     0.00000000
 C      1   2   0     1.471952841771   118.09615795     0.00000000
 C      3   1   2     1.549931158946   112.97783560   258.37408799
 H      3   1   2     1.097137259359   108.32318578    18.12605379
 H      3   1   2     1.104650734943   108.19385265   136.68550081
 O      4   3   1     1.205917285265   122.34689458   117.72809591
 C      1   2   3     1.341711520440   119.61770729   183.90831542
 C      8   1   2     1.535972800809   117.73243324   353.81723884
 O      8   1   2     1.247068421665   123.26139641   174.38537558
 N      9   8   1     1.456181294642   105.33660791   174.14938502
 H      9   8   1     1.104513194589   111.51547351    53.98040125
 H      9   8   1     1.105760824966   110.58716421   294.07058972
 H     11   9   8     1.034937324880   111.63572604     5.68091382
 C     11   9   8     1.326422000000   124.33882261   187.84716357
 C     15  11   9     1.554198176738   118.14159841   178.64846973
 O     15  11   9     1.246899981171   125.67140070   358.78894291
 H     16  15  11     1.100454873752   112.12212526    61.73160268
 H     16  15  11     1.100480262295   112.03412775   298.57430120
 O      4   3   1     1.347667893488   114.78068381   297.62344392
 H     20   4   3     0.991444741557   109.99909627   359.06002996
 N     16  15  11     1.498700025594   102.43961423   180.16107729
 H     22  16  15     1.029571779293   114.09725014   242.57270586
 H     22  16  15     1.108131961926    98.06403317   359.89647240
 H     22  16  15     1.029664901354   114.05514478   116.98687079

---------------------------
INTERNAL COORDINATES (A.U.)
---------------------------
 N      0   0   0     0.000000000000     0.00000000     0.00000000
 H      1   0   0     1.927041018206     0.00000000     0.00000000
 C      1   2   0     2.781587752994   118.09615795     0.00000000
 C      3   1   2     2.928945416840   112.97783560   258.37408799
 H      3   1   2     2.073288951510   108.32318578    18.12605379
 H      3   1   2     2.087487362678   108.19385265   136.68550081
 O      4   3   1     2.278853409313   122.34689458   117.72809591
 C      1   2   3     2.535467324358   119.61770729   183.90831542
 C      8   1   2     2.902567942680   117.73243324   353.81723884
 O      8   1   2     2.356617787209   123.26139641   174.38537558
 N      9   8   1     2.751783848213   105.33660791   174.14938502
 H      9   8   1     2.087227449076   111.51547351    53.98040125
 H      9   8   1     2.089585128805   110.58716421   294.07058972
 H     11   9   8     1.955748109796   111.63572604     5.68091382
 C     11   9   8     2.506574318008   124.33882261   187.84716357
 C     15  11   9     2.937008911875   118.14159841   178.64846973
 O     15  11   9     2.356299480805   125.67140070   358.78894291
 H     16  15  11     2.079558334131   112.12212526    61.73160268
 H     16  15  11     2.079606311523   112.03412775   298.57430120
 O      4   3   1     2.546723238171   114.78068381   297.62344392
 H     20   4   3     1.873559038460   109.99909627   359.06002996
 N     16  15  11     2.832132605273   102.43961423   180.16107729
 H     22  16  15     1.945608698078   114.09725014   242.57270586
 H     22  16  15     2.094065928285    98.06403317   359.89647240
 H     22  16  15     1.945784673271   114.05514478   116.98687079

---------------------
BASIS SET INFORMATION
---------------------
There are 4 groups of distinct atoms

 Group   1 Type N   : 11s6p2d1f contracted to 5s3p2d1f pattern {62111/411/11/1}
 Group   2 Type H   : 5s2p1d contracted to 3s2p1d pattern {311/11/1}
 Group   3 Type C   : 11s6p2d1f contracted to 5s3p2d1f pattern {62111/411/11/1}
 Group   4 Type O   : 11s6p2d1f contracted to 5s3p2d1f pattern {62111/411/11/1}

Atom   0N    basis set group =>   1
Atom   1H    basis set group =>   2
Atom   2C    basis set group =>   3
Atom   3C    basis set group =>   3
Atom   4H    basis set group =>   2
Atom   5H    basis set group =>   2
Atom   6O    basis set group =>   4
Atom   7C    basis set group =>   3
Atom   8C    basis set group =>   3
Atom   9O    basis set group =>   4
Atom  10N    basis set group =>   1
Atom  11H    basis set group =>   2
Atom  12H    basis set group =>   2
Atom  13H    basis set group =>   2
Atom  14C    basis set group =>   3
Atom  15C    basis set group =>   3
Atom  16O    basis set group =>   4
Atom  17H    basis set group =>   2
Atom  18H    basis set group =>   2
Atom  19O    basis set group =>   4
Atom  20H    basis set group =>   2
Atom  21N    basis set group =>   1
Atom  22H    basis set group =>   2
Atom  23H    basis set group =>   2
Atom  24H    basis set group =>   2
---------------------------------
AUXILIARY/J BASIS SET INFORMATION
---------------------------------
There are 4 groups of distinct atoms

 Group   1 Type N   : 12s5p4d2f1g contracted to 6s4p3d1f1g pattern {711111/2111/211/2/1}
 Group   2 Type H   : 5s2p1d contracted to 3s1p1d pattern {311/2/1}
 Group   3 Type C   : 12s5p4d2f1g contracted to 6s4p3d1f1g pattern {711111/2111/211/2/1}
 Group   4 Type O   : 12s5p4d2f1g contracted to 6s4p3d1f1g pattern {711111/2111/211/2/1}

Atom   0N    basis set group =>   1
Atom   1H    basis set group =>   2
Atom   2C    basis set group =>   3
Atom   3C    basis set group =>   3
Atom   4H    basis set group =>   2
Atom   5H    basis set group =>   2
Atom   6O    basis set group =>   4
Atom   7C    basis set group =>   3
Atom   8C    basis set group =>   3
Atom   9O    basis set group =>   4
Atom  10N    basis set group =>   1
Atom  11H    basis set group =>   2
Atom  12H    basis set group =>   2
Atom  13H    basis set group =>   2
Atom  14C    basis set group =>   3
Atom  15C    basis set group =>   3
Atom  16O    basis set group =>   4
Atom  17H    basis set group =>   2
Atom  18H    basis set group =>   2
Atom  19O    basis set group =>   4
Atom  20H    basis set group =>   2
Atom  21N    basis set group =>   1
Atom  22H    basis set group =>   2
Atom  23H    basis set group =>   2
Atom  24H    basis set group =>   2


           ************************************************************
           *        Program running with 8 parallel MPI-processes     *
           *              working on a common directory               *
           ************************************************************
------------------------------------------------------------------------------
                           ORCA GTO INTEGRAL CALCULATION
                           -- RI-GTO INTEGRALS CHOSEN --
------------------------------------------------------------------------------
------------------------------------------------------------------------------
                   ___                                                        
                  /   \      - P O W E R E D   B Y -                         
                 /     \                                                     
                 |  |  |   _    _      __       _____    __    __             
                 |  |  |  | |  | |    /  \     |  _  \  |  |  /  |          
                  \  \/   | |  | |   /    \    | | | |  |  | /  /          
                 / \  \   | |__| |  /  /\  \   | |_| |  |  |/  /          
                |  |  |   |  __  | /  /__\  \  |    /   |      \           
                |  |  |   | |  | | |   __   |  |    \   |  |\   \          
                \     /   | |  | | |  |  |  |  | |\  \  |  | \   \       
                 \___/    |_|  |_| |__|  |__|  |_| \__\ |__|  \__/        
                                                                              
                      - O R C A' S   B I G   F R I E N D -                    
                                      &                                       
                       - I N T E G R A L  F E E D E R -                       
                                                                              
 v1 FN, 2020, v2 2021                                                         
------------------------------------------------------------------------------


Reading SHARK input file GGG-H_tt_006_OptFreq.SHARKINP.tmp ... ok
----------------------
SHARK INTEGRAL PACKAGE
----------------------

Number of atoms                             ...     25
Number of basis functions                   ...    571
Number of shells                            ...    215
Maximum angular momentum                    ...      3
Integral batch strategy                     ... SHARK/LIBINT Hybrid
RI-J (if used) integral strategy            ... SPLIT-RIJ (Revised 2003 algorithm where possible)
Printlevel                                  ...      1
Contraction scheme used                     ... SEGMENTED contraction
Coulomb Range Separation                    ... NOT USED
Exchange Range Separation                   ... Long Range
   Mu parameter                             ...  0.300000
   Scaling (regular/separated)              ...  0.167000  0.833000
Finite Nucleus Model                        ... NOT USED
Auxiliary Coulomb fitting basis             ... AVAILABLE
   # of basis functions in Aux-J            ...    769
   # of shells in Aux-J                     ...    255
   Maximum angular momentum in Aux-J        ...      4
Auxiliary J/K fitting basis                 ... NOT available
Auxiliary Correlation fitting basis         ... NOT available
Auxiliary 'external' fitting basis          ... NOT available
Integral threshold                          ...     1.000000e-12
Primitive cut-off                           ...     1.000000e-14
Primitive pair pre-selection threshold      ...     1.000000e-14

Calculating pre-screening integrals         ... done (  0.0 sec) Dimension = 215
Organizing shell pair data                  ... done (  0.2 sec)
Shell pair information
Total number of shell pairs                 ...     23220
Shell pairs after pre-screening             ...     17524
Total number of primitive shell pairs       ...     63868
Primitive shell pairs kept                  ...     35360
          la=0 lb=0:   3915 shell pairs
          la=1 lb=0:   4981 shell pairs
          la=1 lb=1:   1629 shell pairs
          la=2 lb=0:   2748 shell pairs
          la=2 lb=1:   1787 shell pairs
          la=2 lb=2:    504 shell pairs
          la=3 lb=0:    949 shell pairs
          la=3 lb=1:    614 shell pairs
          la=3 lb=2:    333 shell pairs
          la=3 lb=3:     64 shell pairs

Calculating one electron integrals          ... done (  0.0 sec)
Calculating RI/J V-Matrix + Cholesky decomp.... done (  0.2 sec)
Calculating Nuclear repulsion               ... done (  0.0 sec) ENN=    811.502123237860 Eh

SHARK setup successfully completed in   1.4 seconds

Maximum memory used throughout the entire GTOINT-calculation: 29.6 MB


           ************************************************************
           *        Program running with 8 parallel MPI-processes     *
           *              working on a common directory               *
           ************************************************************
-------------------------------------------------------------------------------
                                 ORCA SCF
-------------------------------------------------------------------------------

------------
SCF SETTINGS
------------
Hamiltonian:
 Density Functional     Method          .... DFT(GTOs)
 Exchange Functional    Exchange        .... WB97X-V
 Correlation Functional Correlation     .... WB97X-V
 Gradients option       PostSCFGGA      .... off
 Hybrid DFT is turned on
   Fraction HF Exchange ScalHFX         ....  0.167000
   Scaling of DF-GGA-X  ScalDFX         ....  0.000000
   Scaling of DF-GGA-C  ScalDFC         ....  1.000000
   Scaling of DF-LDA-C  ScalLDAC        ....  1.000000
   Perturbative correction              ....  0.000000
   Density functional embedding theory  .... OFF
 Long-range corrected/Screened/Range-Separated Hybrid DFT is turned on
   Amount of maximum screened exact exchange              ....  0.833000
   Range separation parameter mu (erf(mu*r12)/r12)        ....  0.300000
 RI-approximation to the Coulomb term is turned on
   Number of AuxJ basis functions       .... 769
   RIJ-COSX (HFX calculated with COS-X)).... on


General Settings:
 Integral files         IntName         .... GGG-H_tt_006_OptFreq
 Hartree-Fock type      HFTyp           .... RHF
 Total Charge           Charge          ....    1
 Multiplicity           Mult            ....    1
 Number of Electrons    NEL             ....  100
 Basis Dimension        Dim             ....  571
 Nuclear Repulsion      ENuc            ....    811.5021232379 Eh

Convergence Acceleration:
 DIIS                   CNVDIIS         .... on
   Start iteration      DIISMaxIt       ....    12
   Startup error        DIISStart       ....  0.200000
   # of expansion vecs  DIISMaxEq       ....     5
   Bias factor          DIISBfac        ....   1.050
   Max. coefficient     DIISMaxC        ....  10.000
 Trust-Rad. Augm. Hess. CNVTRAH         .... auto
   Auto Start mean grad. ratio tolernc. ....  1.125000
   Auto Start start iteration           ....    20
   Auto Start num. interpolation iter.  ....    10
   Max. Number of Micro iterations      ....    16
   Max. Number of Macro iterations      .... Maxiter - #DIIS iter
   Number of Davidson start vectors     ....     2
   Converg. threshold I  (grad. norm)   ....   2.000e-06
   Converg. threshold II (energy diff.) ....   1.000e-09
   Grad. Scal. Fac. for Micro threshold ....   0.100
   Minimum threshold for Micro iter.    ....   0.010
   NR start threshold (gradient norm)   ....   0.001
   Initial trust radius                 ....   0.400
   Minimum AH scaling param. (alpha)    ....   1.000
   Maximum AH scaling param. (alpha)    .... 1000.000
   Orbital update algorithm             .... Taylor
   White noise on init. David. guess    .... on
   Maximum white noise                  ....   0.010
   Quad. conv. algorithm                .... NR
 SOSCF                  CNVSOSCF        .... on
   Start iteration      SOSCFMaxIt      ....   150
   Startup grad/error   SOSCFStart      ....  0.003300
 Level Shifting         CNVShift        .... on
   Level shift para.    LevelShift      ....    0.2500
   Turn off err/grad.   ShiftErr        ....    0.0010
 Zerner damping         CNVZerner       .... off
 Static damping         CNVDamp         .... on
   Fraction old density DampFac         ....    0.7000
   Max. Damping (<1)    DampMax         ....    0.9800
   Min. Damping (>=0)   DampMin         ....    0.0000
   Turn off err/grad.   DampErr         ....    0.1000
 Fernandez-Rico         CNVRico         .... off

SCF Procedure:
 Maximum # iterations   MaxIter         ....   125
 SCF integral mode      SCFMode         .... Direct
   Integral package                     .... SHARK and LIBINT hybrid scheme
 Reset frequency        DirectResetFreq ....    20
 Integral Threshold     Thresh          ....  1.000e-12 Eh
 Primitive CutOff       TCut            ....  1.000e-14 Eh

Convergence Tolerance:
 Convergence Check Mode ConvCheckMode   .... Total+1el-Energy
 Convergence forced     ConvForced      .... 0
 Energy Change          TolE            ....  1.000e-09 Eh
 1-El. energy change                    ....  1.000e-06 Eh
 Orbital Gradient       TolG            ....  2.000e-06
 Orbital Rotation angle TolX            ....  2.000e-06
 DIIS Error             TolErr          ....  1.000e-08


Diagonalization of the overlap matrix:
Smallest eigenvalue                        ... 1.257e-04
Time for diagonalization                   ...    0.045 sec
Threshold for overlap eigenvalues          ... 1.000e-08
Number of eigenvalues below threshold      ... 0
Time for construction of square roots      ...    0.155 sec
Total time needed                          ...    0.229 sec

Time for model grid setup =    0.151 sec

------------------------------
INITIAL GUESS: MODEL POTENTIAL
------------------------------
Loading Hartree-Fock densities                     ... done
Calculating cut-offs                               ... done
Initializing the effective Hamiltonian             ... done
Setting up the integral package (SHARK)            ... done
Starting the Coulomb interaction                   ... done (   0.3 sec)
Reading the grid                                   ... done
Mapping shells                                     ... done
Starting the XC term evaluation                    ... done (   0.1 sec)
  promolecular density results
     # of electrons  =    100.992737885
     EX              =    -58.972683081
     EC              =     -4.267000205
     EX+EC           =    -63.239683286
Transforming the Hamiltonian                       ... done (   0.0 sec)
Diagonalizing the Hamiltonian                      ... done (   0.0 sec)
Back transforming the eigenvectors                 ... done (   0.0 sec)
Now organizing SCF variables                       ... done
                      ------------------
                      INITIAL GUESS DONE (   0.7 sec)
                      ------------------
-------------------
DFT GRID GENERATION
-------------------

General Integration Accuracy     IntAcc      ... 4.959
Radial Grid Type                 RadialGrid  ... OptM3 with GC (2021)
Angular Grid (max. ang.)         AngularGrid ... 6 (Lebedev-590)
Angular grid pruning method      GridPruning ... 4 (adaptive)
Weight generation scheme         WeightScheme... Becke
Basis function cutoff            BFCut       ... 1.0000e-12
Integration weight cutoff        WCut        ... 1.0000e-14
Angular grids for H and He will be reduced by one unit
Partially contracted basis set               ... off
Rotationally invariant grid construction     ... off

Total number of grid points                  ...   289719
Total number of batches                      ...     4538
Average number of points per batch           ...       63
Average number of grid points per atom       ...    11589
Time for grid setup =    3.121 sec

--------------------
COSX GRID GENERATION
--------------------

GRIDX 1
-------
General Integration Accuracy     IntAcc      ... 4.020
Radial Grid Type                 RadialGrid  ... OptM3 with GC (2021)
Angular Grid (max. ang.)         AngularGrid ... 2 (Lebedev-110)
Angular grid pruning method      GridPruning ... 4 (adaptive)
Weight generation scheme         WeightScheme... Becke
Basis function cutoff            BFCut       ... 1.0000e-12
Integration weight cutoff        WCut        ... 1.0000e-14
Angular grids for H and He will be reduced by one unit
Partially contracted basis set               ... on
Rotationally invariant grid construction     ... off

Total number of grid points                  ...    32410
Total number of batches                      ...      518
Average number of points per batch           ...       62
Average number of grid points per atom       ...     1296
UseSFitting                                  ... on

GRIDX 2
-------
General Integration Accuracy     IntAcc      ... 4.338
Radial Grid Type                 RadialGrid  ... OptM3 with GC (2021)
Angular Grid (max. ang.)         AngularGrid ... 3 (Lebedev-194)
Angular grid pruning method      GridPruning ... 4 (adaptive)
Weight generation scheme         WeightScheme... Becke
Basis function cutoff            BFCut       ... 1.0000e-12
Integration weight cutoff        WCut        ... 1.0000e-14
Angular grids for H and He will be reduced by one unit
Partially contracted basis set               ... on
Rotationally invariant grid construction     ... off

Total number of grid points                  ...    71031
Total number of batches                      ...     1122
Average number of points per batch           ...       63
Average number of grid points per atom       ...     2841
UseSFitting                                  ... on

GRIDX 3
-------
General Integration Accuracy     IntAcc      ... 4.871
Radial Grid Type                 RadialGrid  ... OptM3 with GC (2021)
Angular Grid (max. ang.)         AngularGrid ... 4 (Lebedev-302)
Angular grid pruning method      GridPruning ... 4 (adaptive)
Weight generation scheme         WeightScheme... Becke
Basis function cutoff            BFCut       ... 1.0000e-12
Integration weight cutoff        WCut        ... 1.0000e-14
Angular grids for H and He will be reduced by one unit
Partially contracted basis set               ... on
Rotationally invariant grid construction     ... off

Total number of grid points                  ...   134678
Total number of batches                      ...     2116
Average number of points per batch           ...       63
Average number of grid points per atom       ...     5387
UseSFitting                                  ... on

Time for X-Grid setup             =    2.466 sec

--------------
SCF ITERATIONS
--------------
ITER       Energy         Delta-E        Max-DP      RMS-DP      [F,P]     Damp
               ***  Starting incremental Fock matrix formation  ***
  0   -701.1552174015   0.000000000000 0.08636956  0.00046782  0.3412402 0.7000
  1   -701.2017011219  -0.046483720330 0.08150520  0.00043050  0.2341232 0.7000
                               ***Turning on DIIS***
  2   -701.2290030342  -0.027301912326 0.06586735  0.00033919  0.1632010 0.7000
  3   -701.2469995468  -0.017996512617 0.05292094  0.00027219  0.1125681 0.7000
  4   -701.2596329045  -0.012633357736 0.13421918  0.00071460  0.0774538 0.0000
                      *** Initiating the SOSCF procedure ***
                           *** Shutting down DIIS ***
                      *** Re-Reading the Fockian *** 
                      *** Removing any level shift *** 
ITER      Energy       Delta-E        Grad      Rot      Max-DP    RMS-DP
  5   -701.29010397  -0.0304710704  0.001198  0.001198  0.008204  0.000069
               *** Restarting incremental Fock matrix formation ***
  6   -701.29022525  -0.0001212780  0.000582  0.001419  0.005058  0.000041
  7   -701.29025525  -0.0000299982  0.000488  0.001442  0.002879  0.000028
  8   -701.29026148  -0.0000062240  0.000255  0.000384  0.000810  0.000009
  9   -701.29026341  -0.0000019321  0.000083  0.000096  0.000468  0.000004
 10   -701.29026356  -0.0000001515  0.000027  0.000045  0.000167  0.000002
 11   -701.29026366  -0.0000001016  0.000006  0.000017  0.000012  0.000000
 12   -701.29026366  -0.0000000031  0.000004  0.000007  0.000017  0.000000
 13   -701.29026367  -0.0000000017  0.000001  0.000003  0.000004  0.000000
 14   -701.29026367  -0.0000000001  0.000001  0.000002  0.000001  0.000000
                  ***Gradient check signals convergence***
              ***Rediagonalizing the Fockian in SOSCF/NRSCF***

               *****************************************************
               *                     SUCCESS                       *
               *           SCF CONVERGED AFTER  15 CYCLES          *
               *****************************************************

Old exchange energy                            =    -27.827159985 Eh
New exchange energy                            =    -27.827160013 Eh
Exchange energy change after final integration =     -0.000000028 Eh
Total energy after final integration           =   -701.290263693 Eh
Final COS-X integration done in                =    28.022 sec

----------------
TOTAL SCF ENERGY
----------------

Total Energy       :         -701.29026369 Eh          -19083.07824 eV

Components:
Nuclear Repulsion  :          811.50212324 Eh           22082.09541 eV
Electronic Energy  :        -1512.79238693 Eh          -41165.17365 eV
One Electron Energy:        -2551.86563606 Eh          -69439.79421 eV
Two Electron Energy:         1039.07324913 Eh           28274.62056 eV
Max COSX asymmetry :            0.00000049 Eh               0.00001 eV

Virial components:
Potential Energy   :        -1399.22128168 Eh          -38074.74676 eV
Kinetic Energy     :          697.93101798 Eh           18991.66852 eV
Virial Ratio       :            2.00481315


DFT components:
N(Alpha)           :       49.999996184739 electrons
N(Beta)            :       49.999996184739 electrons
N(Total)           :       99.999992369477 electrons
E(X)               :      -60.042398020754 Eh       
E(C)               :       -4.265446563883 Eh       
E(XC)              :      -64.307844584637 Eh       
DFET-embed. en.    :        0.000000000000 Eh       

---------------
SCF CONVERGENCE
---------------

  Last Energy change         ...   -3.2060e-11  Tolerance :   1.0000e-09
  Last MAX-Density change    ...    3.1086e-15  Tolerance :   1.0000e-08
  Last RMS-Density change    ...    1.3851e-17  Tolerance :   1.0000e-09
  Last Orbital Gradient      ...    2.1571e-07  Tolerance :   2.0000e-06
  Last Orbital Rotation      ...    4.6868e-07  Tolerance :   2.0000e-06

             **** THE GBW FILE WAS UPDATED (GGG-H_tt_006_OptFreq.gbw) ****
             **** DENSITY GGG-H_tt_006_OptFreq.scfp WAS UPDATED ****
             **** ENERGY FILE WAS UPDATED (GGG-H_tt_006_OptFreq.en.tmp) ****
             **** THE GBW FILE WAS UPDATED (GGG-H_tt_006_OptFreq.gbw) ****
             **** DENSITY GGG-H_tt_006_OptFreq.scfp WAS UPDATED ****
----------------
ORBITAL ENERGIES
----------------

  NO   OCC          E(Eh)            E(eV) 
   0   2.0000     -19.381187      -527.3889 
   1   2.0000     -19.344736      -526.3970 
   2   2.0000     -19.339231      -526.2472 
   3   2.0000     -19.286291      -524.8067 
   4   2.0000     -14.705141      -400.1472 
   5   2.0000     -14.619600      -397.8195 
   6   2.0000     -14.595745      -397.1704 
   7   2.0000     -10.573415      -287.7172 
   8   2.0000     -10.541358      -286.8449 
   9   2.0000     -10.533082      -286.6197 
  10   2.0000     -10.497370      -285.6480 
  11   2.0000     -10.484245      -285.2908 
  12   2.0000     -10.443618      -284.1853 
  13   2.0000      -1.374533       -37.4029 
  14   2.0000      -1.336497       -36.3679 
  15   2.0000      -1.313725       -35.7483 
  16   2.0000      -1.297591       -35.3092 
  17   2.0000      -1.240806       -33.7641 
  18   2.0000      -1.234216       -33.5847 
  19   2.0000      -1.208743       -32.8916 
  20   2.0000      -1.074286       -29.2328 
  21   2.0000      -1.027416       -27.9574 
  22   2.0000      -0.977129       -26.5890 
  23   2.0000      -0.897907       -24.4333 
  24   2.0000      -0.882534       -24.0150 
  25   2.0000      -0.882280       -24.0080 
  26   2.0000      -0.861660       -23.4470 
  27   2.0000      -0.827117       -22.5070 
  28   2.0000      -0.813818       -22.1451 
  29   2.0000      -0.784098       -21.3364 
  30   2.0000      -0.775313       -21.0973 
  31   2.0000      -0.765427       -20.8283 
  32   2.0000      -0.753777       -20.5113 
  33   2.0000      -0.744221       -20.2513 
  34   2.0000      -0.729236       -19.8435 
  35   2.0000      -0.717620       -19.5274 
  36   2.0000      -0.682654       -18.5760 
  37   2.0000      -0.673707       -18.3325 
  38   2.0000      -0.669567       -18.2199 
  39   2.0000      -0.662919       -18.0389 
  40   2.0000      -0.641230       -17.4488 
  41   2.0000      -0.632659       -17.2155 
  42   2.0000      -0.617628       -16.8065 
  43   2.0000      -0.589736       -16.0475 
  44   2.0000      -0.579527       -15.7697 
  45   2.0000      -0.549481       -14.9521 
  46   2.0000      -0.539585       -14.6829 
  47   2.0000      -0.519900       -14.1472 
  48   2.0000      -0.510807       -13.8998 
  49   2.0000      -0.465576       -12.6690 
  50   0.0000      -0.090262        -2.4562 
  51   0.0000      -0.084219        -2.2917 
  52   0.0000      -0.053923        -1.4673 
  53   0.0000      -0.038960        -1.0602 
  54   0.0000      -0.031179        -0.8484 
  55   0.0000      -0.024936        -0.6785 
  56   0.0000       0.000947         0.0258 
  57   0.0000       0.009061         0.2466 
  58   0.0000       0.013716         0.3732 
  59   0.0000       0.033085         0.9003 
  60   0.0000       0.035984         0.9792 
  61   0.0000       0.043184         1.1751 
  62   0.0000       0.047722         1.2986 
  63   0.0000       0.062974         1.7136 
  64   0.0000       0.071095         1.9346 
  65   0.0000       0.080717         2.1964 
  66   0.0000       0.095076         2.5872 
  67   0.0000       0.105156         2.8614 
  68   0.0000       0.108412         2.9500 
  69   0.0000       0.121522         3.3068 
  70   0.0000       0.121915         3.3175 
  71   0.0000       0.127241         3.4624 
  72   0.0000       0.135302         3.6818 
  73   0.0000       0.144101         3.9212 
  74   0.0000       0.156306         4.2533 
  75   0.0000       0.175187         4.7671 
  76   0.0000       0.188231         5.1220 
  77   0.0000       0.196723         5.3531 
  78   0.0000       0.198275         5.3953 
  79   0.0000       0.210107         5.7173 
  80   0.0000       0.217406         5.9159 
  81   0.0000       0.229058         6.2330 
  82   0.0000       0.233352         6.3498 
  83   0.0000       0.248920         6.7735 
  84   0.0000       0.260836         7.0977 
  85   0.0000       0.268131         7.2962 
  86   0.0000       0.275645         7.5007 
  87   0.0000       0.281646         7.6640 
  88   0.0000       0.281850         7.6695 
  89   0.0000       0.289414         7.8754 
  90   0.0000       0.300264         8.1706 
  91   0.0000       0.303171         8.2497 
  92   0.0000       0.313186         8.5222 
  93   0.0000       0.317101         8.6287 
  94   0.0000       0.321777         8.7560 
  95   0.0000       0.328438         8.9372 
  96   0.0000       0.334702         9.1077 
  97   0.0000       0.341995         9.3062 
  98   0.0000       0.346869         9.4388 
  99   0.0000       0.351855         9.5745 
 100   0.0000       0.357318         9.7231 
 101   0.0000       0.363861         9.9012 
 102   0.0000       0.366557         9.9745 
 103   0.0000       0.378790        10.3074 
 104   0.0000       0.380804        10.3622 
 105   0.0000       0.394486        10.7345 
 106   0.0000       0.396066        10.7775 
 107   0.0000       0.410302        11.1649 
 108   0.0000       0.413876        11.2621 
 109   0.0000       0.417733        11.3671 
 110   0.0000       0.427600        11.6356 
 111   0.0000       0.435744        11.8572 
 112   0.0000       0.441134        12.0039 
 113   0.0000       0.456721        12.4280 
 114   0.0000       0.466037        12.6815 
 115   0.0000       0.477614        12.9965 
 116   0.0000       0.481984        13.1155 
 117   0.0000       0.490026        13.3343 
 118   0.0000       0.501242        13.6395 
 119   0.0000       0.517843        14.0912 
 120   0.0000       0.524604        14.2752 
 121   0.0000       0.536007        14.5855 
 122   0.0000       0.554333        15.0842 
 123   0.0000       0.565788        15.3959 
 124   0.0000       0.569570        15.4988 
 125   0.0000       0.573090        15.5946 
 126   0.0000       0.591837        16.1047 
 127   0.0000       0.597292        16.2531 
 128   0.0000       0.608141        16.5484 
 129   0.0000       0.615195        16.7403 
 130   0.0000       0.619304        16.8521 
 131   0.0000       0.636074        17.3084 
 132   0.0000       0.639620        17.4050 
 133   0.0000       0.650297        17.6955 
 134   0.0000       0.665737        18.1156 
 135   0.0000       0.681245        18.5376 
 136   0.0000       0.688558        18.7366 
 137   0.0000       0.691387        18.8136 
 138   0.0000       0.707112        19.2415 
 139   0.0000       0.726150        19.7596 
 140   0.0000       0.743075        20.2201 
 141   0.0000       0.759262        20.6606 
 142   0.0000       0.765986        20.8435 
 143   0.0000       0.777875        21.1671 
 144   0.0000       0.786617        21.4049 
 145   0.0000       0.802498        21.8371 
 146   0.0000       0.807405        21.9706 
 147   0.0000       0.812158        22.0999 
 148   0.0000       0.824800        22.4439 
 149   0.0000       0.837718        22.7955 
 150   0.0000       0.845507        23.0074 
 151   0.0000       0.853377        23.2216 
 152   0.0000       0.868779        23.6407 
 153   0.0000       0.881211        23.9790 
 154   0.0000       0.890487        24.2314 
 155   0.0000       0.894441        24.3390 
 156   0.0000       0.908113        24.7110 
 157   0.0000       0.910045        24.7636 
 158   0.0000       0.924976        25.1699 
 159   0.0000       0.927534        25.2395 
 160   0.0000       0.941681        25.6244 
 161   0.0000       0.947706        25.7884 
 162   0.0000       0.955605        26.0033 
 163   0.0000       0.967515        26.3274 
 164   0.0000       0.973374        26.4868 
 165   0.0000       0.986305        26.8387 
 166   0.0000       1.008101        27.4318 
 167   0.0000       1.019305        27.7367 
 168   0.0000       1.021244        27.7895 
 169   0.0000       1.022191        27.8152 
 170   0.0000       1.032593        28.0983 
 171   0.0000       1.045027        28.4366 
 172   0.0000       1.053265        28.6608 
 173   0.0000       1.068769        29.0827 
 174   0.0000       1.079320        29.3698 
 175   0.0000       1.085719        29.5439 
 176   0.0000       1.112778        30.2802 
 177   0.0000       1.124674        30.6039 
 178   0.0000       1.132444        30.8154 
 179   0.0000       1.134855        30.8810 
 180   0.0000       1.161491        31.6058 
 181   0.0000       1.165621        31.7182 
 182   0.0000       1.175042        31.9745 
 183   0.0000       1.186957        32.2987 
 184   0.0000       1.200818        32.6759 
 185   0.0000       1.206867        32.8405 
 186   0.0000       1.214968        33.0609 
 187   0.0000       1.227571        33.4039 
 188   0.0000       1.241322        33.7781 
 189   0.0000       1.259610        34.2757 
 190   0.0000       1.268847        34.5271 
 191   0.0000       1.277347        34.7584 
 192   0.0000       1.297904        35.3178 
 193   0.0000       1.299459        35.3601 
 194   0.0000       1.312221        35.7073 
 195   0.0000       1.318283        35.8723 
 196   0.0000       1.331786        36.2397 
 197   0.0000       1.338656        36.4267 
 198   0.0000       1.348132        36.6845 
 199   0.0000       1.350474        36.7483 
 200   0.0000       1.370107        37.2825 
 201   0.0000       1.387872        37.7659 
 202   0.0000       1.395902        37.9844 
 203   0.0000       1.397648        38.0319 
 204   0.0000       1.407918        38.3114 
 205   0.0000       1.420437        38.6520 
 206   0.0000       1.420889        38.6644 
 207   0.0000       1.440361        39.1942 
 208   0.0000       1.455976        39.6191 
 209   0.0000       1.462843        39.8060 
 210   0.0000       1.474121        40.1129 
 211   0.0000       1.485737        40.4290 
 212   0.0000       1.505670        40.9714 
 213   0.0000       1.517746        41.3000 
 214   0.0000       1.530760        41.6541 
 215   0.0000       1.542697        41.9789 
 216   0.0000       1.545654        42.0594 
 217   0.0000       1.559842        42.4455 
 218   0.0000       1.573241        42.8101 
 219   0.0000       1.592854        43.3438 
 220   0.0000       1.604524        43.6613 
 221   0.0000       1.631623        44.3987 
 222   0.0000       1.638822        44.5946 
 223   0.0000       1.653544        44.9952 
 224   0.0000       1.676080        45.6085 
 225   0.0000       1.681950        45.7682 
 226   0.0000       1.683797        45.8184 
 227   0.0000       1.690140        45.9910 
 228   0.0000       1.739812        47.3427 
 229   0.0000       1.758922        47.8627 
 230   0.0000       1.769582        48.1528 
 231   0.0000       1.775117        48.3034 
 232   0.0000       1.777012        48.3550 
 233   0.0000       1.808779        49.2194 
 234   0.0000       1.824480        49.6466 
 235   0.0000       1.844837        50.2006 
 236   0.0000       1.850993        50.3681 
 237   0.0000       1.883049        51.2404 
 238   0.0000       1.909185        51.9516 
 239   0.0000       1.917996        52.1913 
 240   0.0000       1.925997        52.4090 
 241   0.0000       1.951157        53.0937 
 242   0.0000       1.966296        53.5056 
 243   0.0000       1.983266        53.9674 
 244   0.0000       1.991565        54.1932 
 245   0.0000       1.996565        54.3293 
 246   0.0000       2.010398        54.7057 
 247   0.0000       2.062271        56.1172 
 248   0.0000       2.066420        56.2302 
 249   0.0000       2.101615        57.1879 
 250   0.0000       2.123066        57.7716 
 251   0.0000       2.131634        58.0047 
 252   0.0000       2.143088        58.3164 
 253   0.0000       2.175341        59.1940 
 254   0.0000       2.185085        59.4592 
 255   0.0000       2.208451        60.0950 
 256   0.0000       2.228017        60.6274 
 257   0.0000       2.240792        60.9750 
 258   0.0000       2.257943        61.4418 
 259   0.0000       2.273769        61.8724 
 260   0.0000       2.302031        62.6414 
 261   0.0000       2.318442        63.0880 
 262   0.0000       2.339694        63.6663 
 263   0.0000       2.340499        63.6882 
 264   0.0000       2.348938        63.9179 
 265   0.0000       2.370022        64.4916 
 266   0.0000       2.393572        65.1324 
 267   0.0000       2.409907        65.5769 
 268   0.0000       2.446138        66.5628 
 269   0.0000       2.484843        67.6160 
 270   0.0000       2.504645        68.1549 
 271   0.0000       2.520526        68.5870 
 272   0.0000       2.533503        68.9401 
 273   0.0000       2.539147        69.0937 
 274   0.0000       2.548275        69.3421 
 275   0.0000       2.559759        69.6546 
 276   0.0000       2.568435        69.8907 
 277   0.0000       2.573863        70.0384 
 278   0.0000       2.591193        70.5099 
 279   0.0000       2.601791        70.7983 
 280   0.0000       2.622461        71.3608 
 281   0.0000       2.632484        71.6335 
 282   0.0000       2.636797        71.7509 
 283   0.0000       2.661240        72.4160 
 284   0.0000       2.664459        72.5036 
 285   0.0000       2.682102        72.9837 
 286   0.0000       2.700062        73.4724 
 287   0.0000       2.730412        74.2983 
 288   0.0000       2.733201        74.3742 
 289   0.0000       2.748909        74.8016 
 290   0.0000       2.757351        75.0313 
 291   0.0000       2.770898        75.4000 
 292   0.0000       2.785835        75.8064 
 293   0.0000       2.799380        76.1750 
 294   0.0000       2.801578        76.2348 
 295   0.0000       2.814719        76.5924 
 296   0.0000       2.821081        76.7655 
 297   0.0000       2.833177        77.0947 
 298   0.0000       2.840607        77.2969 
 299   0.0000       2.843347        77.3714 
 300   0.0000       2.857071        77.7448 
 301   0.0000       2.880788        78.3902 
 302   0.0000       2.897631        78.8485 
 303   0.0000       2.904027        79.0226 
 304   0.0000       2.918728        79.4226 
 305   0.0000       2.926956        79.6465 
 306   0.0000       2.932825        79.8062 
 307   0.0000       2.939089        79.9767 
 308   0.0000       2.941190        80.0339 
 309   0.0000       2.948349        80.2287 
 310   0.0000       2.967477        80.7492 
 311   0.0000       2.972394        80.8830 
 312   0.0000       3.002600        81.7049 
 313   0.0000       3.013630        82.0050 
 314   0.0000       3.022365        82.2427 
 315   0.0000       3.030557        82.4657 
 316   0.0000       3.037692        82.6598 
 317   0.0000       3.046458        82.8983 
 318   0.0000       3.057064        83.1870 
 319   0.0000       3.075223        83.6811 
 320   0.0000       3.086356        83.9840 
 321   0.0000       3.091670        84.1286 
 322   0.0000       3.100901        84.3798 
 323   0.0000       3.102402        84.4207 
 324   0.0000       3.107156        84.5500 
 325   0.0000       3.117747        84.8382 
 326   0.0000       3.136352        85.3445 
 327   0.0000       3.147005        85.6344 
 328   0.0000       3.157553        85.9214 
 329   0.0000       3.163995        86.0967 
 330   0.0000       3.176975        86.4499 
 331   0.0000       3.188095        86.7525 
 332   0.0000       3.193856        86.9092 
 333   0.0000       3.199071        87.0511 
 334   0.0000       3.210879        87.3725 
 335   0.0000       3.231940        87.9456 
 336   0.0000       3.236501        88.0697 
 337   0.0000       3.247179        88.3602 
 338   0.0000       3.252534        88.5059 
 339   0.0000       3.264111        88.8210 
 340   0.0000       3.295496        89.6750 
 341   0.0000       3.298606        89.7596 
 342   0.0000       3.315113        90.2088 
 343   0.0000       3.321319        90.3777 
 344   0.0000       3.321902        90.3936 
 345   0.0000       3.327049        90.5336 
 346   0.0000       3.350959        91.1842 
 347   0.0000       3.361945        91.4832 
 348   0.0000       3.370916        91.7273 
 349   0.0000       3.380127        91.9779 
 350   0.0000       3.387771        92.1859 
 351   0.0000       3.388973        92.2186 
 352   0.0000       3.413051        92.8738 
 353   0.0000       3.428196        93.2860 
 354   0.0000       3.442249        93.6684 
 355   0.0000       3.451672        93.9248 
 356   0.0000       3.455837        94.0381 
 357   0.0000       3.467924        94.3670 
 358   0.0000       3.478379        94.6515 
 359   0.0000       3.489877        94.9644 
 360   0.0000       3.505767        95.3968 
 361   0.0000       3.516306        95.6836 
 362   0.0000       3.530789        96.0777 
 363   0.0000       3.534595        96.1812 
 364   0.0000       3.543251        96.4168 
 365   0.0000       3.552220        96.6608 
 366   0.0000       3.561048        96.9011 
 367   0.0000       3.572788        97.2205 
 368   0.0000       3.596724        97.8718 
 369   0.0000       3.601647        98.0058 
 370   0.0000       3.619803        98.4999 
 371   0.0000       3.635371        98.9235 
 372   0.0000       3.650362        99.3314 
 373   0.0000       3.670048        99.8671 
 374   0.0000       3.682125       100.1957 
 375   0.0000       3.689795       100.4044 
 376   0.0000       3.695064       100.5478 
 377   0.0000       3.716131       101.1211 
 378   0.0000       3.734627       101.6244 
 379   0.0000       3.740048       101.7719 
 380   0.0000       3.743627       101.8693 
 381   0.0000       3.753202       102.1298 
 382   0.0000       3.755678       102.1972 
 383   0.0000       3.782933       102.9388 
 384   0.0000       3.791804       103.1802 
 385   0.0000       3.797322       103.3304 
 386   0.0000       3.810382       103.6858 
 387   0.0000       3.820948       103.9733 
 388   0.0000       3.827935       104.1634 
 389   0.0000       3.833292       104.3092 
 390   0.0000       3.837895       104.4344 
 391   0.0000       3.866513       105.2132 
 392   0.0000       3.887379       105.7810 
 393   0.0000       3.892219       105.9127 
 394   0.0000       3.903348       106.2155 
 395   0.0000       3.922656       106.7409 
 396   0.0000       3.943751       107.3149 
 397   0.0000       3.969300       108.0101 
 398   0.0000       3.982375       108.3659 
 399   0.0000       3.995384       108.7199 
 400   0.0000       3.997989       108.7908 
 401   0.0000       4.011004       109.1450 
 402   0.0000       4.022414       109.4555 
 403   0.0000       4.029206       109.6403 
 404   0.0000       4.044708       110.0621 
 405   0.0000       4.060309       110.4866 
 406   0.0000       4.070054       110.7518 
 407   0.0000       4.086053       111.1872 
 408   0.0000       4.087494       111.2264 
 409   0.0000       4.116854       112.0253 
 410   0.0000       4.121915       112.1630 
 411   0.0000       4.127718       112.3209 
 412   0.0000       4.141720       112.7019 
 413   0.0000       4.154420       113.0475 
 414   0.0000       4.190467       114.0284 
 415   0.0000       4.202294       114.3502 
 416   0.0000       4.207491       114.4916 
 417   0.0000       4.218526       114.7919 
 418   0.0000       4.228546       115.0646 
 419   0.0000       4.236199       115.2728 
 420   0.0000       4.244015       115.4855 
 421   0.0000       4.257690       115.8576 
 422   0.0000       4.266367       116.0937 
 423   0.0000       4.281309       116.5003 
 424   0.0000       4.299160       116.9861 
 425   0.0000       4.337367       118.0258 
 426   0.0000       4.340396       118.1082 
 427   0.0000       4.362991       118.7230 
 428   0.0000       4.375147       119.0538 
 429   0.0000       4.396270       119.6286 
 430   0.0000       4.413036       120.0848 
 431   0.0000       4.443708       120.9194 
 432   0.0000       4.446503       120.9955 
 433   0.0000       4.453898       121.1967 
 434   0.0000       4.477609       121.8419 
 435   0.0000       4.497393       122.3803 
 436   0.0000       4.511768       122.7714 
 437   0.0000       4.550059       123.8134 
 438   0.0000       4.566928       124.2724 
 439   0.0000       4.586176       124.7962 
 440   0.0000       4.605930       125.3337 
 441   0.0000       4.611721       125.4913 
 442   0.0000       4.628699       125.9533 
 443   0.0000       4.639122       126.2369 
 444   0.0000       4.659278       126.7854 
 445   0.0000       4.668054       127.0242 
 446   0.0000       4.680022       127.3499 
 447   0.0000       4.714279       128.2821 
 448   0.0000       4.730356       128.7195 
 449   0.0000       4.733142       128.7953 
 450   0.0000       4.745163       129.1225 
 451   0.0000       4.760671       129.5444 
 452   0.0000       4.784841       130.2021 
 453   0.0000       4.796627       130.5229 
 454   0.0000       4.826095       131.3247 
 455   0.0000       4.828174       131.3813 
 456   0.0000       4.852480       132.0427 
 457   0.0000       4.864496       132.3697 
 458   0.0000       4.883987       132.9000 
 459   0.0000       4.890979       133.0903 
 460   0.0000       4.944027       134.5338 
 461   0.0000       4.952299       134.7589 
 462   0.0000       4.953863       134.8015 
 463   0.0000       4.964797       135.0990 
 464   0.0000       5.018278       136.5543 
 465   0.0000       5.029697       136.8650 
 466   0.0000       5.044951       137.2801 
 467   0.0000       5.063194       137.7765 
 468   0.0000       5.100757       138.7986 
 469   0.0000       5.120527       139.3366 
 470   0.0000       5.130530       139.6088 
 471   0.0000       5.155714       140.2941 
 472   0.0000       5.162287       140.4730 
 473   0.0000       5.179231       140.9340 
 474   0.0000       5.194091       141.3384 
 475   0.0000       5.206305       141.6708 
 476   0.0000       5.212778       141.8469 
 477   0.0000       5.223148       142.1291 
 478   0.0000       5.240155       142.5919 
 479   0.0000       5.252305       142.9225 
 480   0.0000       5.257469       143.0630 
 481   0.0000       5.274795       143.5345 
 482   0.0000       5.288829       143.9164 
 483   0.0000       5.315766       144.6493 
 484   0.0000       5.333554       145.1334 
 485   0.0000       5.343336       145.3996 
 486   0.0000       5.349482       145.5668 
 487   0.0000       5.367140       146.0473 
 488   0.0000       5.368773       146.0917 
 489   0.0000       5.388903       146.6395 
 490   0.0000       5.439771       148.0237 
 491   0.0000       5.452467       148.3692 
 492   0.0000       5.459841       148.5698 
 493   0.0000       5.469770       148.8400 
 494   0.0000       5.506096       149.8285 
 495   0.0000       5.546557       150.9295 
 496   0.0000       5.554641       151.1495 
 497   0.0000       5.573880       151.6730 
 498   0.0000       5.595052       152.2491 
 499   0.0000       5.598349       152.3388 
 500   0.0000       5.605118       152.5230 
 501   0.0000       5.630245       153.2068 
 502   0.0000       5.634402       153.3199 
 503   0.0000       5.647576       153.6784 
 504   0.0000       5.657032       153.9357 
 505   0.0000       5.664332       154.1343 
 506   0.0000       5.700652       155.1226 
 507   0.0000       5.740425       156.2049 
 508   0.0000       5.746172       156.3613 
 509   0.0000       5.760423       156.7491 
 510   0.0000       5.804034       157.9358 
 511   0.0000       5.805485       157.9753 
 512   0.0000       5.850150       159.1907 
 513   0.0000       5.901272       160.5818 
 514   0.0000       5.908772       160.7859 
 515   0.0000       5.917952       161.0357 
 516   0.0000       5.939845       161.6314 
 517   0.0000       5.943222       161.7233 
 518   0.0000       5.999506       163.2549 
 519   0.0000       6.052343       164.6926 
 520   0.0000       6.073033       165.2556 
 521   0.0000       6.103876       166.0949 
 522   0.0000       6.122413       166.5993 
 523   0.0000       6.240484       169.8122 
 524   0.0000       6.283223       170.9752 
 525   0.0000       6.299820       171.4268 
 526   0.0000       6.318209       171.9272 
 527   0.0000       6.330157       172.2523 
 528   0.0000       6.336051       172.4127 
 529   0.0000       6.372944       173.4166 
 530   0.0000       6.402211       174.2130 
 531   0.0000       6.424418       174.8173 
 532   0.0000       6.449142       175.4901 
 533   0.0000       6.494230       176.7170 
 534   0.0000       6.522181       177.4776 
 535   0.0000       6.555012       178.3709 
 536   0.0000       6.566105       178.6728 
 537   0.0000       6.643830       180.7878 
 538   0.0000       6.681373       181.8094 
 539   0.0000       6.703821       182.4202 
 540   0.0000       6.739812       183.3996 
 541   0.0000       6.752777       183.7524 
 542   0.0000       6.758203       183.9001 
 543   0.0000       6.773034       184.3036 
 544   0.0000       6.804206       185.1519 
 545   0.0000       6.817385       185.5105 
 546   0.0000       6.847336       186.3255 
 547   0.0000       6.856720       186.5808 
 548   0.0000       6.895788       187.6439 
 549   0.0000       7.036803       191.4811 
 550   0.0000       7.080938       192.6821 
 551   0.0000       7.094842       193.0605 
 552   0.0000       7.154553       194.6853 
 553   0.0000       7.160108       194.8364 
 554   0.0000       7.192103       195.7071 
 555   0.0000       7.207618       196.1293 
 556   0.0000       7.446016       202.6164 
 557   0.0000       7.592498       206.6024 
 558   0.0000      23.098465       628.5412 
 559   0.0000      23.198380       631.2600 
 560   0.0000      23.228855       632.0893 
 561   0.0000      23.277972       633.4258 
 562   0.0000      23.385670       636.3564 
 563   0.0000      23.406521       636.9238 
 564   0.0000      32.656890       888.6392 
 565   0.0000      32.879000       894.6831 
 566   0.0000      32.959643       896.8775 
 567   0.0000      43.835115      1192.8141 
 568   0.0000      43.845721      1193.1027 
 569   0.0000      43.900850      1194.6029 
 570   0.0000      43.970603      1196.5009 

                    ********************************
                    * MULLIKEN POPULATION ANALYSIS *
                    ********************************

-----------------------
MULLIKEN ATOMIC CHARGES
-----------------------
   0 N :   -0.200180
   1 H :    0.203643
   2 C :   -0.117797
   3 C :    0.271116
   4 H :    0.138335
   5 H :    0.149745
   6 O :   -0.273119
   7 C :    0.348017
   8 C :   -0.123662
   9 O :   -0.451835
  10 N :   -0.175849
  11 H :    0.148920
  12 H :    0.155603
  13 H :    0.205562
  14 C :    0.278136
  15 C :   -0.157060
  16 O :   -0.356941
  17 H :    0.172345
  18 H :    0.173063
  19 O :   -0.254618
  20 H :    0.235263
  21 N :   -0.087638
  22 H :    0.239543
  23 H :    0.239441
  24 H :    0.239968
Sum of atomic charges:    1.0000000

--------------------------------
MULLIKEN REDUCED ORBITAL CHARGES
--------------------------------
  0 N s       :     3.427527  s :     3.427527
      pz      :     1.568103  p :     3.712885
      px      :     1.061613
      py      :     1.083169
      dz2     :     0.005082  d :     0.055994
      dxz     :     0.012255
      dyz     :     0.003707
      dx2y2   :     0.017550
      dxy     :     0.017401
      f0      :     0.000651  f :     0.003773
      f+1     :     0.000622
      f-1     :     0.000471
      f+2     :     0.000214
      f-2     :     0.000401
      f+3     :     0.000665
      f-3     :     0.000749
  1 H s       :     0.730765  s :     0.730765
      pz      :     0.024565  p :     0.060322
      px      :     0.013436
      py      :     0.022322
      dz2     :     0.000413  d :     0.005270
      dxz     :     0.000118
      dyz     :     0.002042
      dx2y2   :     0.001259
      dxy     :     0.001439
  2 C s       :     3.194926  s :     3.194926
      pz      :     0.973589  p :     2.815220
      px      :     0.744799
      py      :     1.096832
      dz2     :     0.015012  d :     0.100320
      dxz     :     0.026773
      dyz     :     0.019143
      dx2y2   :     0.018824
      dxy     :     0.020567
      f0      :     0.001221  f :     0.007331
      f+1     :     0.001055
      f-1     :     0.000954
      f+2     :     0.001381
      f-2     :     0.000499
      f+3     :     0.001200
      f-3     :     0.001021
  3 C s       :     3.087573  s :     3.087573
      pz      :     0.855510  p :     2.348765
      px      :     0.758741
      py      :     0.734515
      dz2     :     0.066061  d :     0.268990
      dxz     :     0.032648
      dyz     :     0.053780
      dx2y2   :     0.069106
      dxy     :     0.047395
      f0      :     0.003518  f :     0.023556
      f+1     :     0.003553
      f-1     :     0.002769
      f+2     :     0.003770
      f-2     :     0.003591
      f+3     :     0.002471
      f-3     :     0.003883
  4 H s       :     0.826976  s :     0.826976
      pz      :     0.008486  p :     0.032561
      px      :     0.010321
      py      :     0.013754
      dz2     :     0.000170  d :     0.002127
      dxz     :     0.000256
      dyz     :     0.000598
      dx2y2   :     0.000808
      dxy     :     0.000295
  5 H s       :     0.815670  s :     0.815670
      pz      :     0.012001  p :     0.032577
      px      :     0.007625
      py      :     0.012952
      dz2     :     0.000687  d :     0.002007
      dxz     :     0.000314
      dyz     :     0.000258
      dx2y2   :     0.000335
      dxy     :     0.000413
  6 O s       :     3.794357  s :     3.794357
      pz      :     1.514075  p :     4.443798
      px      :     1.348991
      py      :     1.580733
      dz2     :     0.007276  d :     0.033021
      dxz     :     0.007340
      dyz     :     0.006446
      dx2y2   :     0.006881
      dxy     :     0.005078
      f0      :     0.000214  f :     0.001943
      f+1     :     0.000324
      f-1     :     0.000266
      f+2     :     0.000423
      f-2     :     0.000347
      f+3     :     0.000214
      f-3     :     0.000156
  7 C s       :     3.062422  s :     3.062422
[...]
     53      -0.593615  -0.000845   0.586431   0.000954  -0.004306   0.001104
     54      -0.146752   0.000223  -0.144519  -0.000186   0.003105   0.001065
     55      -0.388057  -0.000103  -0.399394  -0.000512  -0.001742   0.001586
     56       0.571671  -0.000331   0.559285   0.000713   0.004614  -0.001204
     57      -0.000015  -0.000004  -0.000003  -0.000227  -0.000132  -0.000828
     58       0.000015  -0.000000   0.000004   0.000526   0.000090   0.000505
     59       0.000021  -0.000023  -0.000000  -0.000030   0.000191   0.001164
     60       0.000198  -0.000023   0.000032  -0.000699   0.002067   0.012828
     61      -0.000305   0.000182  -0.000044   0.002072  -0.001678  -0.009304
     62      -0.000318   0.000288   0.000003  -0.002664  -0.002962  -0.017709
     63      -0.000708   0.000001  -0.000024  -0.000002  -0.049407   0.002492
     64       0.000658  -0.000025  -0.000057  -0.000006   0.032662  -0.002214
     65       0.000001  -0.000003   0.002405   0.000004  -0.000634   0.000005
     66      -0.001480  -0.000019   0.000919   0.000032   0.341251  -0.016610
     67       0.001811  -0.000049  -0.005942  -0.000030  -0.199172   0.009709
     68       0.005402   0.000040  -0.010383  -0.000071  -0.576716   0.028085
     69      -0.007072  -0.000091  -0.000070  -0.000030  -0.013227  -0.002395
     70      -0.028920   0.000374  -0.000063   0.000135  -0.028279   0.011068
     71      -0.000692   0.000221  -0.000837   0.000003  -0.000840   0.000234
     72      -0.001310   0.000004  -0.000660   0.000023   0.330938  -0.016040
     73       0.001968   0.000005   0.006444  -0.000013  -0.227000   0.011018
     74      -0.005301   0.000071  -0.010347   0.000036   0.585974  -0.028399
                 72         73         74    
      0       0.000000   0.019527  -0.001644
      1       0.000001   0.069830  -0.011475
      2      -0.000003   0.007701  -0.001350
      3       0.000002  -0.268430   0.040257
      4      -0.000010  -0.943307   0.136013
      5       0.000032  -0.106635   0.015428
      6       0.000001  -0.001477  -0.000693
      7       0.000000   0.000315   0.000314
      8       0.000001   0.000459   0.000195
      9       0.000001   0.000263   0.002088
     10      -0.000005  -0.000494  -0.002371
     11       0.000008  -0.000210  -0.001512
     12      -0.000002   0.005171   0.000316
     13       0.000009  -0.006274   0.002849
     14       0.000004  -0.000105  -0.003233
     15      -0.000000  -0.004629   0.000751
     16      -0.000008  -0.005099   0.002072
     17       0.000000  -0.004334   0.000923
     18      -0.000000  -0.000210  -0.001152
     19       0.000000   0.000263   0.001346
     20      -0.000003   0.000163   0.000757
     21      -0.000001   0.001510  -0.000869
     22      -0.000002   0.000680   0.005036
     23       0.000003  -0.000037   0.000523
     24       0.000000  -0.000173  -0.000030
     25      -0.000001   0.000179  -0.000406
     26       0.000000   0.000057  -0.000240
     27       0.000001  -0.000117  -0.000622
     28       0.000002  -0.001694  -0.002351
     29      -0.000005  -0.000023   0.000366
     30       0.000003   0.000380  -0.001143
     31       0.000010   0.000524  -0.001541
     32      -0.000033   0.000001  -0.000032
     33       0.000039  -0.000374  -0.001606
     34       0.000003  -0.001888   0.000185
     35       0.000041  -0.000830   0.000784
     36      -0.000029  -0.000143  -0.000469
     37       0.000010  -0.000724   0.000045
     38       0.000024   0.000120   0.000027
     39      -0.000058  -0.004293   0.014984
     40      -0.000115  -0.006997   0.020310
     41       0.000063  -0.000006   0.000141
     42      -0.000009  -0.000147   0.000471
     43       0.000001  -0.000081   0.000040
     44      -0.000063  -0.000004   0.000008
     45      -0.000002  -0.000001   0.000023
     46       0.000019  -0.000002   0.000034
     47      -0.000975   0.000000  -0.000000
     48      -0.000004   0.000036  -0.000142
     49       0.000003   0.000043  -0.000072
     50       0.000010   0.000002  -0.000004
     51       0.002916   0.000005  -0.000019
     52       0.006043   0.000024  -0.000114
     53       0.009992   0.000035  -0.000222
     54      -0.003117  -0.000004  -0.000048
     55      -0.006475   0.000019  -0.000143
     56       0.009423  -0.000023   0.000263
     57      -0.000017   0.005104   0.034692
     58       0.000013  -0.003229  -0.022141
     59       0.000015  -0.006924  -0.046661
     60       0.000236  -0.080014  -0.547588
     61      -0.000160   0.052849   0.356704
     62      -0.000259   0.109252   0.740146
     63       0.001527   0.000040  -0.000176
     64       0.001435  -0.000027   0.000163
     65      -0.082049  -0.000004  -0.000032
     66      -0.356519  -0.000241   0.000905
     67       0.212927   0.000120  -0.000478
     68       0.576326   0.000399  -0.001460
     69       0.000233  -0.000102   0.000537
     70       0.000592   0.000077  -0.001153
     71      -0.009878  -0.000000   0.000005
     72       0.335491  -0.000206   0.001114
     73      -0.233329   0.000114  -0.000714
     74       0.566822  -0.000349   0.001936


-----------
IR SPECTRUM
-----------

 Mode   freq       eps      Int      T**2         TX        TY        TZ
       cm**-1   L/(mol*cm) km/mol    a.u.
----------------------------------------------------------------------------
  6:     19.87   0.000768    3.88  0.012061  ( 0.082358 -0.009532 -0.072023)
  7:     48.74   0.000823    4.16  0.005268  (-0.002337  0.024450  0.068297)
  8:     57.48   0.000799    4.04  0.004339  (-0.037493 -0.026620 -0.047165)
  9:     73.62   0.001784    9.02  0.007564  (-0.073095 -0.017571 -0.043728)
 10:     86.18   0.003523   17.80  0.012756  (-0.101200 -0.037249  0.033571)
 11:    101.28   0.002298   11.61  0.007079  ( 0.015841  0.010146  0.082007)
 12:    150.87   0.004004   20.23  0.008281  (-0.032508 -0.046259  0.071307)
 13:    178.14   0.001818    9.19  0.003185  (-0.004362  0.006198  0.055925)
 14:    213.64   0.000145    0.73  0.000212  (-0.014504 -0.001339 -0.000406)
 15:    255.56   0.000424    2.14  0.000518  ( 0.019560  0.008369  0.008057)
 16:    296.54   0.003806   19.23  0.004005  ( 0.054443 -0.022001 -0.023606)
 17:    303.26   0.000602    3.04  0.000619  ( 0.019667 -0.006657 -0.013712)
 18:    330.66   0.020613  104.17  0.019454  ( 0.125329 -0.060840  0.006694)
 19:    399.00   0.022669  114.56  0.017730  (-0.110034  0.074056  0.011746)
 20:    459.62   0.002881   14.56  0.001956  ( 0.001093 -0.036989  0.024219)
 21:    499.52   0.010859   54.88  0.006784  ( 0.002904  0.022653 -0.079136)
 22:    536.18   0.007010   35.42  0.004080  ( 0.055020  0.005391  0.031992)
 23:    561.01   0.005339   26.98  0.002970  (-0.005009 -0.004990  0.054034)
 24:    595.39   0.002577   13.02  0.001351  ( 0.013986  0.004872  0.033636)
 25:    621.67   0.000735    3.71  0.000369  (-0.017256  0.006465  0.005419)
 26:    676.54   0.003207   16.21  0.001479  ( 0.035642 -0.014423 -0.000905)
 27:    699.24   0.011620   58.72  0.005186  (-0.032311 -0.009627  0.063633)
 28:    717.39   0.023904  120.80  0.010398  ( 0.086961  0.048703  0.021545)
 29:    737.18   0.001439    7.27  0.000609  (-0.022938 -0.009099 -0.000249)
 30:    785.63   0.001004    5.07  0.000399  (-0.001861 -0.014553 -0.013547)
 31:    878.01   0.001212    6.13  0.000431  (-0.016526  0.012562 -0.000162)
 32:    918.66   0.004167   21.06  0.001416  ( 0.021096 -0.030677  0.005423)
 33:    932.30   0.002336   11.81  0.000782  ( 0.001100 -0.001354  0.027909)
 34:    976.67   0.014189   71.70  0.004534  (-0.059861  0.030507  0.004415)
 35:   1019.32   0.000398    2.01  0.000122  ( 0.005117 -0.003631  0.009081)
 36:   1027.35   0.000768    3.88  0.000233  (-0.004971  0.014358 -0.001517)
 37:   1040.35   0.001863    9.41  0.000559  (-0.021231  0.006874  0.007789)
 38:   1069.66   0.002574   13.01  0.000751  ( 0.008111 -0.026162 -0.000807)
 39:   1115.26   0.001061    5.36  0.000297  (-0.010353  0.010641  0.008743)
 40:   1115.90   0.023297  117.74  0.006515  (-0.055207  0.058862  0.001620)
 41:   1153.22   0.000483    2.44  0.000131  (-0.003067  0.010976 -0.000858)
 42:   1239.88   0.003747   18.94  0.000943  (-0.011063  0.024765 -0.014401)
 43:   1261.11   0.001458    7.37  0.000361  (-0.006135 -0.014005  0.011267)
 44:   1266.26   0.000742    3.75  0.000183  (-0.003400 -0.012946 -0.001904)
 45:   1298.77   0.016978   85.80  0.004079  ( 0.060777  0.013568 -0.014197)
 46:   1315.92   0.006777   34.25  0.001607  ( 0.038446 -0.002511 -0.011077)
 47:   1322.48   0.000667    3.37  0.000157  ( 0.000525  0.000634  0.012520)
 48:   1358.81   0.001210    6.12  0.000278  ( 0.001829  0.011971 -0.011460)
 49:   1376.26   0.007942   40.14  0.001801  (-0.004739 -0.036583  0.020978)
 50:   1411.23   0.034833  176.03  0.007703  ( 0.027560 -0.074777  0.036761)
 51:   1415.88   0.006532   33.01  0.001440  ( 0.025133  0.026737 -0.009654)
 52:   1437.78   0.096225  486.28  0.020885  (-0.143830 -0.014047  0.000917)
 53:   1484.73   0.003994   20.19  0.000840  (-0.005038  0.020983  0.019336)
 54:   1501.46   0.017079   86.31  0.003550  ( 0.050699 -0.031278 -0.000989)
 55:   1504.72   0.003984   20.14  0.000826  (-0.026110 -0.011679  0.002863)
 56:   1589.42   0.109019  550.94  0.021405  ( 0.125144 -0.074974 -0.011071)
 57:   1606.81   0.011033   55.76  0.002143  ( 0.045151 -0.005048 -0.008868)
 58:   1651.52   0.005400   27.29  0.001020  (-0.018702  0.025873 -0.001058)
 59:   1667.98   0.006084   30.75  0.001138  ( 0.001151 -0.000178 -0.033718)
 60:   1748.96   0.047014  237.59  0.008389  (-0.007396 -0.091287 -0.000776)
 61:   1791.23   0.064815  327.55  0.011292  ( 0.104807  0.017118 -0.003810)
 62:   1894.66   0.077796  393.15  0.012814  (-0.075261  0.054065  0.065010)
 63:   2878.00   0.088537  447.43  0.009600  (-0.054446  0.081417  0.002649)
 64:   3089.91   0.001955    9.88  0.000197  ( 0.012506 -0.006369 -0.000711)
 65:   3107.19   0.000589    2.97  0.000059  ( 0.007121  0.001176  0.002650)
 66:   3133.09   0.001041    5.26  0.000104  ( 0.006229 -0.008045 -0.000381)
 67:   3135.42   0.000064    0.32  0.000006  (-0.001264  0.000330  0.002160)
 68:   3194.42   0.000354    1.79  0.000035  (-0.000043 -0.000150  0.005875)
 69:   3195.04   0.000059    0.30  0.000006  ( 0.001362 -0.001948  0.000376)
 70:   3512.99   0.027580  139.38  0.002450  ( 0.044893 -0.020840 -0.000610)
 71:   3541.30   0.043865  221.68  0.003865  ( 0.057915  0.022215 -0.004210)
 72:   3573.59   0.021097  106.61  0.001842  (-0.000870 -0.000721  0.042907)
 73:   3670.15   0.012404   62.68  0.001055  (-0.005814 -0.031830  0.002776)
 74:   3686.68   0.064755  327.25  0.005481  (-0.055960  0.018937  0.044622)

* The epsilon (eps) is given for a Dirac delta lineshape.
** The dipole moment derivative (T) already includes vibrational overlap.

The first frequency considered to be a vibration is 6
The total number of vibrations considered is 69


--------------------------
THERMOCHEMISTRY AT 298.15K
--------------------------

Temperature         ... 298.15 K
Pressure            ... 1.00 atm
Total Mass          ... 190.18 AMU

Throughout the following assumptions are being made:
  (1) The electronic state is orbitally nondegenerate
  (2) There are no thermally accessible electronically excited states
  (3) Hindered rotations indicated by low frequency modes are not
      treated as such but are treated as vibrations and this may
      cause some error
  (4) All equations used are the standard statistical mechanics
      equations for an ideal gas
  (5) All vibrations are strictly harmonic

freq.      19.87  E(vib)   ...       0.56 
freq.      48.74  E(vib)   ...       0.53 
freq.      57.48  E(vib)   ...       0.51 
freq.      73.62  E(vib)   ...       0.49 
freq.      86.18  E(vib)   ...       0.48 
freq.     101.28  E(vib)   ...       0.46 
freq.     150.87  E(vib)   ...       0.40 
freq.     178.14  E(vib)   ...       0.37 
freq.     213.64  E(vib)   ...       0.34 
freq.     255.56  E(vib)   ...       0.30 
freq.     296.54  E(vib)   ...       0.27 
freq.     303.26  E(vib)   ...       0.26 
freq.     330.66  E(vib)   ...       0.24 
freq.     399.00  E(vib)   ...       0.19 
freq.     459.62  E(vib)   ...       0.16 
freq.     499.52  E(vib)   ...       0.14 
freq.     536.18  E(vib)   ...       0.12 
freq.     561.01  E(vib)   ...       0.11 
freq.     595.39  E(vib)   ...       0.10 
freq.     621.67  E(vib)   ...       0.09 
freq.     676.54  E(vib)   ...       0.08 
freq.     699.24  E(vib)   ...       0.07 
freq.     717.39  E(vib)   ...       0.07 
freq.     737.18  E(vib)   ...       0.06 
freq.     785.63  E(vib)   ...       0.05 
freq.     878.01  E(vib)   ...       0.04 
freq.     918.66  E(vib)   ...       0.03 
freq.     932.30  E(vib)   ...       0.03 
freq.     976.67  E(vib)   ...       0.03 
freq.    1019.32  E(vib)   ...       0.02 
freq.    1027.35  E(vib)   ...       0.02 
freq.    1040.35  E(vib)   ...       0.02 
freq.    1069.66  E(vib)   ...       0.02 
freq.    1115.26  E(vib)   ...       0.01 
freq.    1115.90  E(vib)   ...       0.01 
freq.    1153.22  E(vib)   ...       0.01 
freq.    1239.88  E(vib)   ...       0.01 
freq.    1261.11  E(vib)   ...       0.01 
freq.    1266.26  E(vib)   ...       0.01 
freq.    1298.77  E(vib)   ...       0.01 
freq.    1315.92  E(vib)   ...       0.01 
freq.    1322.48  E(vib)   ...       0.01 
freq.    1358.81  E(vib)   ...       0.01 
freq.    1376.26  E(vib)   ...       0.01 
freq.    1411.23  E(vib)   ...       0.00 
freq.    1415.88  E(vib)   ...       0.00 
freq.    1437.78  E(vib)   ...       0.00 
freq.    1484.73  E(vib)   ...       0.00 
freq.    1501.46  E(vib)   ...       0.00 
freq.    1504.72  E(vib)   ...       0.00 
freq.    1589.42  E(vib)   ...       0.00 
freq.    1606.81  E(vib)   ...       0.00 
freq.    1651.52  E(vib)   ...       0.00 
freq.    1667.98  E(vib)   ...       0.00 
freq.    1748.96  E(vib)   ...       0.00 
freq.    1791.23  E(vib)   ...       0.00 
freq.    1894.66  E(vib)   ...       0.00 
freq.    2878.00  E(vib)   ...       0.00 
freq.    3089.91  E(vib)   ...       0.00 
freq.    3107.19  E(vib)   ...       0.00 
freq.    3133.09  E(vib)   ...       0.00 
freq.    3135.42  E(vib)   ...       0.00 
freq.    3194.42  E(vib)   ...       0.00 
freq.    3195.04  E(vib)   ...       0.00 
freq.    3512.99  E(vib)   ...       0.00 
freq.    3541.30  E(vib)   ...       0.00 
freq.    3573.59  E(vib)   ...       0.00 
freq.    3670.15  E(vib)   ...       0.00 
freq.    3686.68  E(vib)   ...       0.00 

------------
INNER ENERGY
------------

The inner energy is: U= E(el) + E(ZPE) + E(vib) + E(rot) + E(trans)
    E(el)   - is the total energy from the electronic structure calculation
              = E(kin-el) + E(nuc-el) + E(el-el) + E(nuc-nuc)
    E(ZPE)  - the the zero temperature vibrational energy from the frequency calculation
    E(vib)  - the the finite temperature correction to E(ZPE) due to population
              of excited vibrational states
    E(rot)  - is the rotational thermal energy
    E(trans)- is the translational thermal energy

Summary of contributions to the inner energy U:
Electronic energy                ...   -701.33537006 Eh
Zero point energy                ...      0.20848539 Eh     130.83 kcal/mol
Thermal vibrational correction   ...      0.01085335 Eh       6.81 kcal/mol
Thermal rotational correction    ...      0.00141627 Eh       0.89 kcal/mol
Thermal translational correction ...      0.00141627 Eh       0.89 kcal/mol
-----------------------------------------------------------------------
Total thermal energy                   -701.11319878 Eh


Summary of corrections to the electronic energy:
(perhaps to be used in another calculation)
Total thermal correction                  0.01368590 Eh       8.59 kcal/mol
Non-thermal (ZPE) correction              0.20848539 Eh     130.83 kcal/mol
-----------------------------------------------------------------------
Total correction                          0.22217128 Eh     139.41 kcal/mol


--------
ENTHALPY
--------

The enthalpy is H = U + kB*T
                kB is Boltzmann's constant
Total free energy                 ...   -701.11319878 Eh 
Thermal Enthalpy correction       ...      0.00094421 Eh       0.59 kcal/mol
-----------------------------------------------------------------------
Total Enthalpy                    ...   -701.11225457 Eh


Note: Only C1 symmetry has been detected, increase convergence thresholds 
      if your molecule has a higher symmetry. Symmetry factor of 1.0 is   
      used for the rotational entropy correction. 
 

Note: Rotational entropy computed according to Herzberg 
Infrared and Raman Spectra, Chapter V,1, Van Nostrand Reinhold, 1945 
Point Group:  C1, Symmetry Number:   1  
Rotational constants in cm-1:     0.080547     0.008737     0.008383 

Vibrational entropy computed according to the QRRHO of S. Grimme
Chem.Eur.J. 2012 18 9955


-------
ENTROPY
-------

The entropy contributions are T*S = T*(S(el)+S(vib)+S(rot)+S(trans))
     S(el)   - electronic entropy
     S(vib)  - vibrational entropy
     S(rot)  - rotational entropy
     S(trans)- translational entropy
The entropies will be listed as multiplied by the temperature to get
units of energy

Electronic entropy                ...      0.00000000 Eh      0.00 kcal/mol
Vibrational entropy               ...      0.01962062 Eh     12.31 kcal/mol
Rotational entropy                ...      0.01519509 Eh      9.54 kcal/mol
Translational entropy             ...      0.01978162 Eh     12.41 kcal/mol
-----------------------------------------------------------------------
Final entropy term                ...      0.05459732 Eh     34.26 kcal/mol

In case the symmetry of your molecule has not been determined correctly
or in case you have a reason to use a different symmetry number we print 
out the resulting rotational entropy values for sn=1,12 :
 --------------------------------------------------------
|  sn= 1 | S(rot)=       0.01519509 Eh      9.54 kcal/mol|
|  sn= 2 | S(rot)=       0.01454063 Eh      9.12 kcal/mol|
|  sn= 3 | S(rot)=       0.01415780 Eh      8.88 kcal/mol|
|  sn= 4 | S(rot)=       0.01388618 Eh      8.71 kcal/mol|
|  sn= 5 | S(rot)=       0.01367549 Eh      8.58 kcal/mol|
|  sn= 6 | S(rot)=       0.01350334 Eh      8.47 kcal/mol|
|  sn= 7 | S(rot)=       0.01335780 Eh      8.38 kcal/mol|
|  sn= 8 | S(rot)=       0.01323172 Eh      8.30 kcal/mol|
|  sn= 9 | S(rot)=       0.01312051 Eh      8.23 kcal/mol|
|  sn=10 | S(rot)=       0.01302103 Eh      8.17 kcal/mol|
|  sn=11 | S(rot)=       0.01293104 Eh      8.11 kcal/mol|
|  sn=12 | S(rot)=       0.01284889 Eh      8.06 kcal/mol|
 --------------------------------------------------------


-------------------
GIBBS FREE ENERGY
-------------------

The Gibbs free energy is G = H - T*S

Total enthalpy                    ...   -701.11225457 Eh 
Total entropy correction          ...     -0.05459732 Eh    -34.26 kcal/mol
-----------------------------------------------------------------------
Final Gibbs free energy         ...   -701.16685189 Eh

For completeness - the Gibbs free energy minus the electronic energy
G-E(el)                           ...      0.16851817 Eh    105.75 kcal/mol


Timings for individual modules:

Sum of individual times         ...     5518.242 sec (=  91.971 min)
GTO integral calculation        ...       22.851 sec (=   0.381 min)   0.4 %
SCF iterations                  ...     1892.775 sec (=  31.546 min)  34.3 %
SCF Gradient evaluation         ...      403.590 sec (=   6.726 min)   7.3 %
Geometry relaxation             ...        1.077 sec (=   0.018 min)   0.0 %
Analytical frequency calculation...     2721.194 sec (=  45.353 min)  49.3 %
CHELPG charge generation        ...      476.755 sec (=   7.946 min)   8.6 %
                             ****ORCA TERMINATED NORMALLY****
TOTAL RUN TIME: 0 days 1 hours 32 minutes 20 seconds 753 msec
