
Lmod is automatically replacing "intel/2020.1.217" with "gcc/10.3.0".


Due to MODULEPATH changes, the following have been reloaded:
  1) blis/0.8.1     2) flexiblas/3.0.4

The following have been reloaded with a version change:
  1) gcccore/.9.3.0 => gcccore/.10.3.0        3) openmpi/4.0.3 => openmpi/4.1.1
  2) libfabric/1.10.1 => libfabric/1.12.1     4) ucx/1.8.0 => ucx/1.9.0

To execute ORCA, run: 
   ${EBROOTORCA}/orca orca.inp > orca.out

                                 *****************
                                 * O   R   C   A *
                                 *****************

                                            #,                                       
                                            ###                                      
                                            ####                                     
                                            #####                                    
                                            ######                                   
                                           ########,                                 
                                     ,,################,,,,,                         
                               ,,#################################,,                 
                          ,,##########################################,,             
                       ,#########################################, ''#####,          
                    ,#############################################,,   '####,        
                  ,##################################################,,,,####,       
                ,###########''''           ''''###############################       
              ,#####''   ,,,,##########,,,,          '''####'''          '####       
            ,##' ,,,,###########################,,,                        '##       
           ' ,,###''''                  '''############,,,                           
         ,,##''                                '''############,,,,        ,,,,,,###''
      ,#''                                            '''#######################'''  
     '                                                          ''''####''''         
             ,#######,   #######,   ,#######,      ##                                
            ,#'     '#,  ##    ##  ,#'     '#,    #''#        ######   ,####,        
            ##       ##  ##   ,#'  ##            #'  '#       #        #'  '#        
            ##       ##  #######   ##           ,######,      #####,   #    #        
            '#,     ,#'  ##    ##  '#,     ,#' ,#      #,         ##   #,  ,#        
             '#######'   ##     ##  '#######'  #'      '#     #####' # '####'        



                  #######################################################
                  #                        -***-                        #
                  #          Department of theory and spectroscopy      #
                  #    Directorship and core code : Frank Neese         #
                  #        Max Planck Institute fuer Kohlenforschung    #
                  #                Kaiser Wilhelm Platz 1               #
                  #                 D-45470 Muelheim/Ruhr               #
                  #                      Germany                        #
                  #                                                     #
                  #                  All rights reserved                #
                  #                        -***-                        #
                  #######################################################


                         Program Version 5.0.2 -  RELEASE  -


 With contributions from (in alphabetic order):
   Daniel Aravena         : Magnetic Suceptibility
   Michael Atanasov       : Ab Initio Ligand Field Theory (pilot matlab implementation)
   Alexander A. Auer      : GIAO ZORA, VPT2 properties, NMR spectrum
   Ute Becker             : Parallelization
   Giovanni Bistoni       : ED, misc. LED, open-shell LED, HFLD
   Martin Brehm           : Molecular dynamics
   Dmytro Bykov           : SCF Hessian
   Vijay G. Chilkuri      : MRCI spin determinant printing, contributions to CSF-ICE
   Dipayan Datta          : RHF DLPNO-CCSD density
   Achintya Kumar Dutta   : EOM-CC, STEOM-CC
   Dmitry Ganyushin       : Spin-Orbit,Spin-Spin,Magnetic field MRCI
   Miquel Garcia          : C-PCM and meta-GGA Hessian, CC/C-PCM, Gaussian charge scheme
   Yang Guo               : DLPNO-NEVPT2, F12-NEVPT2, CIM, IAO-localization
   Andreas Hansen         : Spin unrestricted coupled pair/coupled cluster methods
   Benjamin Helmich-Paris : MC-RPA, TRAH-SCF, COSX integrals
   Lee Huntington         : MR-EOM, pCC
   Robert Izsak           : Overlap fitted RIJCOSX, COSX-SCS-MP3, EOM
   Marcus Kettner         : VPT2
   Christian Kollmar      : KDIIS, OOCD, Brueckner-CCSD(T), CCSD density, CASPT2, CASPT2-K
   Simone Kossmann        : Meta GGA functionals, TD-DFT gradient, OOMP2, MP2 Hessian
   Martin Krupicka        : Initial AUTO-CI
   Lucas Lang             : DCDCAS
   Marvin Lechner         : AUTO-CI (C++ implementation), FIC-MRCC
   Dagmar Lenk            : GEPOL surface, SMD
   Dimitrios Liakos       : Extrapolation schemes; Compound Job, initial MDCI parallelization
   Dimitrios Manganas     : Further ROCIS development; embedding schemes
   Dimitrios Pantazis     : SARC Basis sets
   Anastasios Papadopoulos: AUTO-CI, single reference methods and gradients
   Taras Petrenko         : DFT Hessian,TD-DFT gradient, ASA, ECA, R-Raman, ABS, FL, XAS/XES, NRVS
   Peter Pinski           : DLPNO-MP2, DLPNO-MP2 Gradient
   Christoph Reimann      : Effective Core Potentials
   Marius Retegan         : Local ZFS, SOC
   Christoph Riplinger    : Optimizer, TS searches, QM/MM, DLPNO-CCSD(T), (RO)-DLPNO pert. Triples
   Tobias Risthaus        : Range-separated hybrids, TD-DFT gradient, RPA, STAB
   Michael Roemelt        : Original ROCIS implementation
   Masaaki Saitow         : Open-shell DLPNO-CCSD energy and density
   Barbara Sandhoefer     : DKH picture change effects
   Avijit Sen             : IP-ROCIS
   Kantharuban Sivalingam : CASSCF convergence, NEVPT2, FIC-MRCI
   Bernardo de Souza      : ESD, SOC TD-DFT
   Georgi Stoychev        : AutoAux, RI-MP2 NMR, DLPNO-MP2 response
   Willem Van den Heuvel  : Paramagnetic NMR
   Boris Wezisla          : Elementary symmetry handling
   Frank Wennmohs         : Technical directorship


 We gratefully acknowledge several colleagues who have allowed us to
 interface, adapt or use parts of their codes:
   Stefan Grimme, W. Hujo, H. Kruse, P. Pracht,  : VdW corrections, initial TS optimization,
                  C. Bannwarth, S. Ehlert          DFT functionals, gCP, sTDA/sTD-DF
   Ed Valeev, F. Pavosevic, A. Kumar             : LibInt (2-el integral package), F12 methods
   Garnet Chan, S. Sharma, J. Yang, R. Olivares  : DMRG
   Ulf Ekstrom                                   : XCFun DFT Library
   Mihaly Kallay                                 : mrcc  (arbitrary order and MRCC methods)
   Jiri Pittner, Ondrej Demel                    : Mk-CCSD
   Frank Weinhold                                : gennbo (NPA and NBO analysis)
   Christopher J. Cramer and Donald G. Truhlar   : smd solvation model
   Lars Goerigk                                  : TD-DFT with DH, B97 family of functionals
   V. Asgeirsson, H. Jonsson                     : NEB implementation
   FAccTs GmbH                                   : IRC, NEB, NEB-TS, DLPNO-Multilevel, CI-OPT
                                                   MM, QMMM, 2- and 3-layer-ONIOM, Crystal-QMMM,
                                                   LR-CPCM, SF, NACMEs, symmetry and pop. for TD-DFT,
                                                   nearIR, NL-DFT gradient (VV10), updates on ESD,
                                                   ML-optimized integration grids
   S Lehtola, MJT Oliveira, MAL Marques          : LibXC Library
   Liviu Ungur et al                             : ANISO software


 Your calculation uses the libint2 library for the computation of 2-el integrals
 For citations please refer to: http://libint.valeyev.net

 Your ORCA version has been built with support for libXC version: 5.1.0
 For citations please refer to: https://tddft.org/programs/libxc/

 This ORCA versions uses:
   CBLAS   interface :  Fast vector & matrix operations
   LAPACKE interface :  Fast linear algebra routines
   SCALAPACK package :  Parallel linear algebra routines
   Shared memory     :  Shared parallel matrices
   BLAS/LAPACK       :  OpenBLAS 0.3.15  USE64BITINT DYNAMIC_ARCH NO_AFFINITY Zen SINGLE_THREADED
        Core in use  :  Zen
   Copyright (c) 2011-2014, The OpenBLAS Project


Your calculation utilizes the atom-pairwise dispersion correction
with the Becke-Johnson damping scheme (D3BJ)
Cite in your paper:
S.Grimme, S.Ehrlich, L.Goerigk, J Comput Chem, (2011), 32, 1456–1465 
S.Grimme, J.Antony, S.Ehrlich and H.Krieg, J.Chem.Phys., 132, (2010), 154104 
   

================================================================================

----- Orbital basis set information -----
Your calculation utilizes the basis: def2-TZVPP
   F. Weigend and R. Ahlrichs, Phys. Chem. Chem. Phys. 7, 3297 (2005).

----- AuxJ basis set information -----
Your calculation utilizes the auxiliary basis: def2/J
   F. Weigend, Phys. Chem. Chem. Phys. 8, 1057 (2006).

================================================================================
                                        WARNINGS
                       Please study these warnings very carefully!
================================================================================


WARNING: Geometry Optimization
  ===> : Switching off AutoStart
         For restart on a previous wavefunction, please use MOREAD

INFO   : the flag for use of the SHARK integral package has been found!

================================================================================
                                       INPUT FILE
================================================================================
NAME = GGG-H_tt_015_OptFreq.inp
|  1> # GGG-H_tt_015 (old 072)
|  2> ! wB97X-D3BJ Opt Freq def2-TZVPP def2/J RIJCOSX VeryTightSCF
|  3> ! PAL8 defgrid3 VeryTightOpt
|  4> 
|  5> %maxcore 4096
|  6> 
|  7> %geom
|  8>   MaxIter 300
|  9>   # MaxStep 0.1
| 10>   Calc_Hess true
| 11>   Recalc_Hess 10
| 12> end
| 13> 
| 14> %chelpg
| 15>   grid 0.1
| 16>   rmax 3.0
| 17> end
| 18> 
| 19> * xyz 1 1 
| 20>  N   -3.275238   +1.529171   -0.020921
| 21>  H   -3.103290   +2.541412   -0.023509
| 22>  C   -4.680650   +1.163086   -0.031546
| 23>  C   -5.479018   +2.458837   -0.048816
| 24>  H   -4.935633   +0.551824   -0.916502
| 25>  H   -4.953038   +0.565635   +0.857732
| 26>  O   -4.960374   +3.559646   -0.050924
| 27>  C   -2.283143   +0.624495   -0.012473
| 28>  C   -0.843526   +1.185678   -0.001686
| 29>  O   -2.454337   -0.601149   -0.012209
| 30>  N   +0.000000   +0.000000   +0.000000
| 31>  H   -0.661235   +1.804540   +0.895200
| 32>  H   -0.648498   +1.811250   -0.891091
| 33>  H   -0.594270   -0.855489   -0.002137
| 34>  C   +1.321629   +0.000000   +0.000000
| 35>  C   +2.057436   -1.369809   +0.000614
| 36>  O   +2.058201   +1.010824   +0.000000
| 37>  H   +1.824454   -1.965205   -0.894950
| 38>  H   +1.825584   -1.962552   +0.898241
| 39>  O   -6.797726   +2.229489   -0.060767
| 40>  H   -7.251897   +3.099851   -0.071247
| 41>  N   +3.496404   -0.956002   -0.000835
| 42>  H   +4.017887   -1.250649   -0.837498
| 43>  H   +3.320903   +0.152587   -0.000322
| 44>  H   +4.019650   -1.250869   +0.834655
| 45> *
| 46> 
| 47>                          ****END OF INPUT****
================================================================================

                       *****************************
                       * Geometry Optimization Run *
                       *****************************

Geometry optimization settings:
Update method            Update   .... BFGS
Choice of coordinates    CoordSys .... Z-matrix Internals
Initial Hessian          InHess   .... Almoef's Model

Convergence Tolerances:
Energy Change            TolE     ....  2.0000e-07 Eh
Max. Gradient            TolMAXG  ....  3.0000e-05 Eh/bohr
RMS Gradient             TolRMSG  ....  8.0000e-06 Eh/bohr
Max. Displacement        TolMAXD  ....  2.0000e-04 bohr
RMS Displacement         TolRMSD  ....  1.0000e-04 bohr
Strict Convergence                ....  False
------------------------------------------------------------------------------
                        ORCA OPTIMIZATION COORDINATE SETUP
------------------------------------------------------------------------------

The optimization will be done in new redundant internal coordinates
Making redundant internal coordinates   ...  (new redundants) done
Evaluating the initial hessian          ...  (Is done on the fly) done
Evaluating the coordinates              ...  done
Calculating the B-matrix                .... done
Calculating the G-matrix                .... done
Diagonalizing the G-matrix              .... done
Small eigenvalue found = 3.877e-03
Small eigenvalue found = 1.802e-02
Small eigenvalue found = 2.123e-02
Small eigenvalue found = 2.911e-02
The first mode is                       ....   44
The number of degrees of freedom        ....   69

    -----------------------------------------------------------------
                    Redundant Internal Coordinates


    -----------------------------------------------------------------
         Definition                    Initial Value    d2E/dq (diagonal element)
    -----------------------------------------------------------------
      1. B(H   1,N   0)                  1.0267         0.000000   
      2. B(C   2,N   0)                  1.4523         0.000000   
      3. B(C   3,C   2)                  1.5221         0.000000   
      4. B(H   4,C   2)                  1.1054         0.000000   
      5. B(H   5,C   2)                  1.1054         0.000000   
      6. B(O   6,C   3)                  1.2169         0.000000   
      7. B(C   7,N   0)                  1.3427         0.000000   
      8. B(C   8,C   7)                  1.5452         0.000000   
      9. B(O   9,C   7)                  1.2375         0.000000   
     10. B(N  10,C   8)                  1.4551         0.000000   
     11. B(H  11,C   8)                  1.1048         0.000000   
     12. B(H  12,C   8)                  1.1047         0.000000   
     13. B(H  13,N  10)                  1.0416         0.000000   
     14. B(C  14,N  10)                  1.3216         0.000000   
     15. B(C  15,C  14)                  1.5549         0.000000   
     16. B(O  16,C  14)                  1.2507         0.000000   
     17. B(H  17,C  15)                  1.1004         0.000000   
     18. B(H  18,C  15)                  1.1004         0.000000   
     19. B(O  19,C   3)                  1.3386         0.000000   
     20. B(H  20,O  19)                  0.9818         0.000000   
     21. B(N  21,C  15)                  1.4973         0.000000   
     22. B(H  22,N  21)                  1.0290         0.000000   
     23. B(H  23,N  21)                  1.1224         0.000000   
     24. B(H  24,N  21)                  1.0290         0.000000   
     25. A(H   1,N   0,C   2)          114.2389         0.000000   
     26. A(C   2,N   0,C   7)          123.0401         0.000000   
     27. A(H   1,N   0,C   7)          122.7207         0.000000   
     28. A(C   3,C   2,H   5)          109.8763         0.000000   
     29. A(C   3,C   2,H   4)          109.9193         0.000000   
     30. A(N   0,C   2,H   4)          111.6216         0.000000   
     31. A(N   0,C   2,C   3)          107.0423         0.000000   
     32. A(N   0,C   2,H   5)          111.6414         0.000000   
     33. A(H   4,C   2,H   5)          106.7587         0.000000   
     34. A(O   6,C   3,O  19)          125.0908         0.000000   
     35. A(C   2,C   3,O  19)          111.7768         0.000000   
     36. A(C   2,C   3,O   6)          123.1325         0.000000   
     37. A(C   8,C   7,O   9)          119.2471         0.000000   
     38. A(N   0,C   7,O   9)          124.4091         0.000000   
     39. A(N   0,C   7,C   8)          116.3438         0.000000   
     40. A(C   7,C   8,H  11)          111.2741         0.000000   
     41. A(C   7,C   8,N  10)          104.1327         0.000000   
     42. A(H  11,C   8,H  12)          107.8933         0.000000   
     43. A(N  10,C   8,H  12)          111.1007         0.000000   
     44. A(C   7,C   8,H  12)          111.3781         0.000000   
     45. A(N  10,C   8,H  11)          111.0903         0.000000   
     46. A(H  13,N  10,C  14)          124.7859         0.000000   
     47. A(C   8,N  10,C  14)          125.4291         0.000000   
     48. A(C   8,N  10,H  13)          109.7847         0.000000   
     49. A(C  15,C  14,O  16)          115.6768         0.000000   
     50. A(N  10,C  14,O  16)          126.0803         0.000000   
     51. A(N  10,C  14,C  15)          118.2429         0.000000   
     52. A(H  17,C  15,H  18)          109.1373         0.000000   
     53. A(C  14,C  15,H  18)          112.0341         0.000000   
     54. A(C  14,C  15,H  17)          112.0958         0.000000   
     55. A(H  18,C  15,N  21)          110.6194         0.000000   
     56. A(H  17,C  15,N  21)          110.6242         0.000000   
     57. A(C  14,C  15,N  21)          102.1991         0.000000   
     58. A(C   3,O  19,H  20)          107.6942         0.000000   
     59. A(H  23,N  21,H  24)          111.2343         0.000000   
     60. A(H  22,N  21,H  24)          108.6898         0.000000   
     61. A(C  15,N  21,H  24)          114.1247         0.000000   
     62. A(H  22,N  21,H  23)          111.2506         0.000000   
     63. A(C  15,N  21,H  23)           97.0479         0.000000   
     64. A(C  15,N  21,H  22)          114.1239         0.000000   
     65. D(H   4,C   2,N   0,C   7)    -59.2869         0.000000   
     66. D(H   5,C   2,N   0,C   7)     60.1161         0.000000   
     67. D(H   5,C   2,N   0,H   1)   -120.0736         0.000000   
     68. D(H   4,C   2,N   0,H   1)    120.5234         0.000000   
     69. D(C   3,C   2,N   0,H   1)      0.2044         0.000000   
     70. D(C   3,C   2,N   0,C   7)   -179.6059         0.000000   
     71. D(O   6,C   3,C   2,H   4)   -121.4663         0.000000   
     72. D(O  19,C   3,C   2,H   5)    -58.6533         0.000000   
     73. D(O  19,C   3,C   2,H   4)     58.5484         0.000000   
     74. D(O   6,C   3,C   2,H   5)    121.3320         0.000000   
     75. D(O  19,C   3,C   2,N   0)    179.9480         0.000000   
     76. D(O   6,C   3,C   2,N   0)     -0.0667         0.000000   
     77. D(O   9,C   7,N   0,H   1)   -179.8278         0.000000   
     78. D(C   8,C   7,N   0,C   2)   -179.9977         0.000000   
     79. D(C   8,C   7,N   0,H   1)      0.2079         0.000000   
     80. D(O   9,C   7,N   0,C   2)     -0.0334         0.000000   
     81. D(H  12,C   8,C   7,O   9)    120.0878         0.000000   
     82. D(H  12,C   8,C   7,N   0)    -59.9460         0.000000   
     83. D(H  11,C   8,C   7,O   9)   -119.4815         0.000000   
     84. D(N  10,C   8,C   7,O   9)      0.2702         0.000000   
     85. D(N  10,C   8,C   7,N   0)   -179.7635         0.000000   
     86. D(H  11,C   8,C   7,N   0)     60.4847         0.000000   
     87. D(C  14,N  10,C   8,H  12)     59.5520         0.000000   
     88. D(C  14,N  10,C   8,H  11)    -60.5669         0.000000   
     89. D(C  14,N  10,C   8,C   7)    179.5570         0.000000   
     90. D(H  13,N  10,C   8,H  12)   -120.2520         0.000000   
     91. D(H  13,N  10,C   8,H  11)    119.6292         0.000000   
     92. D(H  13,N  10,C   8,C   7)     -0.2470         0.000000   
     93. D(O  16,C  14,N  10,C   8)      0.0815         0.000000   
     94. D(C  15,C  14,N  10,H  13)     -0.1688         0.000000   
     95. D(C  15,C  14,N  10,C   8)   -179.9442         0.000000   
     96. D(O  16,C  14,N  10,H  13)    179.8569         0.000000   
     97. D(N  21,C  15,C  14,O  16)     -0.0725         0.000000   
     98. D(N  21,C  15,C  14,N  10)    179.9505         0.000000   
     99. D(H  18,C  15,C  14,O  16)    118.3637         0.000000   
    100. D(H  18,C  15,C  14,N  10)    -61.6133         0.000000   
    101. D(H  17,C  15,C  14,O  16)   -118.5431         0.000000   
    102. D(H  17,C  15,C  14,N  10)     61.4799         0.000000   
    103. D(H  20,O  19,C   3,O   6)     -0.0019         0.000000   
    104. D(H  20,O  19,C   3,C   2)    179.9831         0.000000   
    105. D(H  24,N  21,C  15,H  18)     -2.2870         0.000000   
    106. D(H  24,N  21,C  15,H  17)   -123.3424         0.000000   
    107. D(H  24,N  21,C  15,C  14)    117.1483         0.000000   
    108. D(H  23,N  21,C  15,H  18)   -119.3669         0.000000   
    109. D(H  23,N  21,C  15,H  17)    119.5777         0.000000   
    110. D(H  23,N  21,C  15,C  14)      0.0684         0.000000   
    111. D(H  22,N  21,C  15,H  18)    123.5346         0.000000   
    112. D(H  22,N  21,C  15,H  17)      2.4792         0.000000   
    113. D(H  22,N  21,C  15,C  14)   -117.0301         0.000000   
    -----------------------------------------------------------------

Number of atoms                         .... 25
Number of degrees of freedom            .... 113

         *************************************************************
         *                GEOMETRY OPTIMIZATION CYCLE   1            *
         *************************************************************
---------------------------------
CARTESIAN COORDINATES (ANGSTROEM)
---------------------------------
  N     -3.275238    1.529171   -0.020921
  H     -3.103290    2.541412   -0.023509
  C     -4.680650    1.163086   -0.031546
  C     -5.479018    2.458837   -0.048816
  H     -4.935633    0.551824   -0.916502
  H     -4.953038    0.565635    0.857732
  O     -4.960374    3.559646   -0.050924
  C     -2.283143    0.624495   -0.012473
  C     -0.843526    1.185678   -0.001686
  O     -2.454337   -0.601149   -0.012209
  N      0.000000    0.000000    0.000000
  H     -0.661235    1.804540    0.895200
  H     -0.648498    1.811250   -0.891091
  H     -0.594270   -0.855489   -0.002137
  C      1.321629    0.000000    0.000000
  C      2.057436   -1.369809    0.000614
  O      2.058201    1.010824    0.000000
  H      1.824454   -1.965205   -0.894950
  H      1.825584   -1.962552    0.898241
  O     -6.797726    2.229489   -0.060767
  H     -7.251897    3.099851   -0.071247
  N      3.496404   -0.956002   -0.000835
  H      4.017887   -1.250649   -0.837498
  H      3.320903    0.152587   -0.000322
  H      4.019650   -1.250869    0.834655

----------------------------
CARTESIAN COORDINATES (A.U.)
----------------------------
  NO LB      ZA    FRAG     MASS         X           Y           Z
   0 N     7.0000    0    14.007   -6.189303    2.889714   -0.039535
   1 H     1.0000    0     1.008   -5.864368    4.802573   -0.044426
   2 C     6.0000    0    12.011   -8.845147    2.197914   -0.059613
   3 C     6.0000    0    12.011  -10.353844    4.646529   -0.092249
   4 H     1.0000    0     1.008   -9.326995    1.042796   -1.731938
   5 H     1.0000    0     1.008   -9.359885    1.068895    1.620879
   6 O     8.0000    0    15.999   -9.373748    6.726756   -0.096232
   7 C     6.0000    0    12.011   -4.314515    1.180125   -0.023571
   8 C     6.0000    0    12.011   -1.594033    2.240607   -0.003186
   9 O     8.0000    0    15.999   -4.638025   -1.136007   -0.023072
  10 N     7.0000    0    14.007    0.000000    0.000000    0.000000
  11 H     1.0000    0     1.008   -1.249553    3.410086    1.691683
  12 H     1.0000    0     1.008   -1.225484    3.422766   -1.683918
  13 H     1.0000    0     1.008   -1.123008   -1.616640   -0.004038
  14 C     6.0000    0    12.011    2.497517    0.000000    0.000000
  15 C     6.0000    0    12.011    3.887991   -2.588564    0.001160
  16 O     8.0000    0    15.999    3.889436    1.910181    0.000000
  17 H     1.0000    0     1.008    3.447718   -3.713699   -1.691210
  18 H     1.0000    0     1.008    3.449854   -3.708686    1.697429
  19 O     8.0000    0    15.999  -12.845840    4.213124   -0.114833
  20 H     1.0000    0     1.008  -13.704099    5.857869   -0.134637
  21 N     7.0000    0    14.007    6.607246   -1.806582   -0.001578
  22 H     1.0000    0     1.008    7.592706   -2.363384   -1.582642
  23 H     1.0000    0     1.008    6.275597    0.288348   -0.000608
  24 H     1.0000    0     1.008    7.596038   -2.363800    1.577269

--------------------------------
INTERNAL COORDINATES (ANGSTROEM)
--------------------------------
 N      0   0   0     0.000000000000     0.00000000     0.00000000
 H      1   0   0     1.026744688094     0.00000000     0.00000000
 C      1   2   0     1.452347757114   114.23889811     0.00000000
 C      3   1   2     1.522057939214   107.04228645     0.20438428
 H      3   1   2     1.105352742281   111.62155546   120.52339861
 H      3   1   2     1.105422218534   111.64139560   239.92637034
 O      4   3   1     1.216871602463   123.13249280   359.93332666
 C      1   2   3     1.342669923215   122.72070514   179.81099383
 C      8   1   2     1.545166601227   116.34381693     0.20787037
 O      8   1   2     1.237542189207   124.40907014   180.17215019
 N      9   8   1     1.455118989965   104.13273824   180.23647248
 H      9   8   1     1.104818845205   111.27413715    60.48469892
 H      9   8   1     1.104725079824   111.37812023   300.05404544
 H     11   9   8     1.041644290912   109.78465622   359.75303940
 C     11   9   8     1.321629000000   125.42913194   179.55700920
 C     15  11   9     1.554924118639   118.24292395   180.05579077
 O     15  11   9     1.250721180024   126.08025150     0.08147289
 H     16  15  11     1.100368977769   112.09577451    61.47991219
 H     16  15  11     1.100378955216   112.03407887   298.38671967
 O      4   3   1     1.338556730501   111.77675400   179.94798020
 H     20   4   3     0.981789762976   107.69422607   179.98306665
 N     16  15  11     1.497286625157   102.19914013   179.95053276
 H     22  16  15     1.028963726021   114.12391195   242.96990994
 H     22  16  15     1.122394955036    97.04787436     0.06837688
 H     22  16  15     1.028968641070   114.12472306   117.14828505

---------------------------
INTERNAL COORDINATES (A.U.)
---------------------------
 N      0   0   0     0.000000000000     0.00000000     0.00000000
 H      1   0   0     1.940266269956     0.00000000     0.00000000
 C      1   2   0     2.744539512160   114.23889811     0.00000000
 C      3   1   2     2.876272665075   107.04228645     0.20438428
 H      3   1   2     2.088813964291   111.62155546   120.52339861
 H      3   1   2     2.088945255381   111.64139560   239.92637034
 O      4   3   1     2.299554068801   123.13249280   359.93332666
 C      1   2   3     2.537278443129   122.72070514   179.81099383
 C      8   1   2     2.919941707601   116.34381693     0.20787037
 O      8   1   2     2.338615816775   124.40907014   180.17215019
 N      9   8   1     2.749776383301   104.13273824   180.23647248
 H      9   8   1     2.087805045033   111.27413715    60.48469892
 H      9   8   1     2.087627854142   111.37812023   300.05404544
 H     11   9   8     1.968422438787   109.78465622   359.75303940
 C     11   9   8     2.497516860648   125.42913194   179.55700920
 C     15  11   9     2.938380743257   118.24292395   180.05579077
 O     15  11   9     2.363520500140   126.08025150     0.08147289
 H     16  15  11     2.079396014246   112.09577451    61.47991219
 H     16  15  11     2.079414868888   112.03407887   298.38671967
 O      4   3   1     2.529505635364   111.77675400   179.94798020
 H     20   4   3     1.855313773113   107.69422607   179.98306665
 N     16  15  11     2.829461665530   102.19914013   179.95053276
 H     22  16  15     1.944459643919   114.12391195   242.96990994
 H     22  16  15     2.121019079114    97.04787436     0.06837688
 H     22  16  15     1.944468932015   114.12472306   117.14828505

---------------------
BASIS SET INFORMATION
---------------------
There are 4 groups of distinct atoms

 Group   1 Type N   : 11s6p2d1f contracted to 5s3p2d1f pattern {62111/411/11/1}
 Group   2 Type H   : 5s2p1d contracted to 3s2p1d pattern {311/11/1}
 Group   3 Type C   : 11s6p2d1f contracted to 5s3p2d1f pattern {62111/411/11/1}
 Group   4 Type O   : 11s6p2d1f contracted to 5s3p2d1f pattern {62111/411/11/1}

Atom   0N    basis set group =>   1
Atom   1H    basis set group =>   2
Atom   2C    basis set group =>   3
Atom   3C    basis set group =>   3
Atom   4H    basis set group =>   2
Atom   5H    basis set group =>   2
Atom   6O    basis set group =>   4
Atom   7C    basis set group =>   3
Atom   8C    basis set group =>   3
Atom   9O    basis set group =>   4
Atom  10N    basis set group =>   1
Atom  11H    basis set group =>   2
Atom  12H    basis set group =>   2
Atom  13H    basis set group =>   2
Atom  14C    basis set group =>   3
Atom  15C    basis set group =>   3
Atom  16O    basis set group =>   4
Atom  17H    basis set group =>   2
Atom  18H    basis set group =>   2
Atom  19O    basis set group =>   4
Atom  20H    basis set group =>   2
Atom  21N    basis set group =>   1
Atom  22H    basis set group =>   2
Atom  23H    basis set group =>   2
Atom  24H    basis set group =>   2
---------------------------------
AUXILIARY/J BASIS SET INFORMATION
---------------------------------
There are 4 groups of distinct atoms

 Group   1 Type N   : 12s5p4d2f1g contracted to 6s4p3d1f1g pattern {711111/2111/211/2/1}
 Group   2 Type H   : 5s2p1d contracted to 3s1p1d pattern {311/2/1}
 Group   3 Type C   : 12s5p4d2f1g contracted to 6s4p3d1f1g pattern {711111/2111/211/2/1}
 Group   4 Type O   : 12s5p4d2f1g contracted to 6s4p3d1f1g pattern {711111/2111/211/2/1}

Atom   0N    basis set group =>   1
Atom   1H    basis set group =>   2
Atom   2C    basis set group =>   3
Atom   3C    basis set group =>   3
Atom   4H    basis set group =>   2
Atom   5H    basis set group =>   2
Atom   6O    basis set group =>   4
Atom   7C    basis set group =>   3
Atom   8C    basis set group =>   3
Atom   9O    basis set group =>   4
Atom  10N    basis set group =>   1
Atom  11H    basis set group =>   2
Atom  12H    basis set group =>   2
Atom  13H    basis set group =>   2
Atom  14C    basis set group =>   3
Atom  15C    basis set group =>   3
Atom  16O    basis set group =>   4
Atom  17H    basis set group =>   2
Atom  18H    basis set group =>   2
Atom  19O    basis set group =>   4
Atom  20H    basis set group =>   2
Atom  21N    basis set group =>   1
Atom  22H    basis set group =>   2
Atom  23H    basis set group =>   2
Atom  24H    basis set group =>   2


           ************************************************************
           *        Program running with 8 parallel MPI-processes     *
           *              working on a common directory               *
           ************************************************************
------------------------------------------------------------------------------
                           ORCA GTO INTEGRAL CALCULATION
                           -- RI-GTO INTEGRALS CHOSEN --
------------------------------------------------------------------------------
------------------------------------------------------------------------------
                   ___                                                        
                  /   \      - P O W E R E D   B Y -                         
                 /     \                                                     
                 |  |  |   _    _      __       _____    __    __             
                 |  |  |  | |  | |    /  \     |  _  \  |  |  /  |          
                  \  \/   | |  | |   /    \    | | | |  |  | /  /          
                 / \  \   | |__| |  /  /\  \   | |_| |  |  |/  /          
                |  |  |   |  __  | /  /__\  \  |    /   |      \           
                |  |  |   | |  | | |   __   |  |    \   |  |\   \          
                \     /   | |  | | |  |  |  |  | |\  \  |  | \   \       
                 \___/    |_|  |_| |__|  |__|  |_| \__\ |__|  \__/        
                                                                              
                      - O R C A' S   B I G   F R I E N D -                    
                                      &                                       
                       - I N T E G R A L  F E E D E R -                       
                                                                              
 v1 FN, 2020, v2 2021                                                         
------------------------------------------------------------------------------


Reading SHARK input file GGG-H_tt_015_OptFreq.SHARKINP.tmp ... ok
----------------------
SHARK INTEGRAL PACKAGE
----------------------

Number of atoms                             ...     25
Number of basis functions                   ...    571
Number of shells                            ...    215
Maximum angular momentum                    ...      3
Integral batch strategy                     ... SHARK/LIBINT Hybrid
RI-J (if used) integral strategy            ... SPLIT-RIJ (Revised 2003 algorithm where possible)
Printlevel                                  ...      1
Contraction scheme used                     ... SEGMENTED contraction
Coulomb Range Separation                    ... NOT USED
Exchange Range Separation                   ... Long Range
   Mu parameter                             ...  0.300000
   Scaling (regular/separated)              ...  0.167000  0.833000
Finite Nucleus Model                        ... NOT USED
Auxiliary Coulomb fitting basis             ... AVAILABLE
   # of basis functions in Aux-J            ...    769
   # of shells in Aux-J                     ...    255
   Maximum angular momentum in Aux-J        ...      4
Auxiliary J/K fitting basis                 ... NOT available
Auxiliary Correlation fitting basis         ... NOT available
Auxiliary 'external' fitting basis          ... NOT available
Integral threshold                          ...     1.000000e-12
Primitive cut-off                           ...     1.000000e-14
Primitive pair pre-selection threshold      ...     1.000000e-14

Calculating pre-screening integrals         ... done (  0.0 sec) Dimension = 215
Organizing shell pair data                  ... done (  0.1 sec)
Shell pair information
Total number of shell pairs                 ...     23220
Shell pairs after pre-screening             ...     16819
Total number of primitive shell pairs       ...     63868
Primitive shell pairs kept                  ...     34047
          la=0 lb=0:   3767 shell pairs
          la=1 lb=0:   4786 shell pairs
          la=1 lb=1:   1565 shell pairs
          la=2 lb=0:   2634 shell pairs
          la=2 lb=1:   1708 shell pairs
          la=2 lb=2:    481 shell pairs
          la=3 lb=0:    913 shell pairs
          la=3 lb=1:    586 shell pairs
          la=3 lb=2:    316 shell pairs
          la=3 lb=3:     63 shell pairs

Calculating one electron integrals          ... done (  0.0 sec)
Calculating RI/J V-Matrix + Cholesky decomp.... done (  0.6 sec)
Calculating Nuclear repulsion               ... done (  0.0 sec) ENN=    790.691469246583 Eh

SHARK setup successfully completed in   1.9 seconds

Maximum memory used throughout the entire GTOINT-calculation: 29.0 MB


           ************************************************************
           *        Program running with 8 parallel MPI-processes     *
           *              working on a common directory               *
           ************************************************************
-------------------------------------------------------------------------------
                                 ORCA SCF
-------------------------------------------------------------------------------

------------
SCF SETTINGS
------------
Hamiltonian:
 Density Functional     Method          .... DFT(GTOs)
 Exchange Functional    Exchange        .... WB97X-V
 Correlation Functional Correlation     .... WB97X-V
 Gradients option       PostSCFGGA      .... off
 Hybrid DFT is turned on
   Fraction HF Exchange ScalHFX         ....  0.167000
   Scaling of DF-GGA-X  ScalDFX         ....  0.000000
   Scaling of DF-GGA-C  ScalDFC         ....  1.000000
   Scaling of DF-LDA-C  ScalLDAC        ....  1.000000
   Perturbative correction              ....  0.000000
   Density functional embedding theory  .... OFF
 Long-range corrected/Screened/Range-Separated Hybrid DFT is turned on
   Amount of maximum screened exact exchange              ....  0.833000
   Range separation parameter mu (erf(mu*r12)/r12)        ....  0.300000
 RI-approximation to the Coulomb term is turned on
   Number of AuxJ basis functions       .... 769
   RIJ-COSX (HFX calculated with COS-X)).... on


General Settings:
 Integral files         IntName         .... GGG-H_tt_015_OptFreq
 Hartree-Fock type      HFTyp           .... RHF
 Total Charge           Charge          ....    1
 Multiplicity           Mult            ....    1
 Number of Electrons    NEL             ....  100
 Basis Dimension        Dim             ....  571
 Nuclear Repulsion      ENuc            ....    790.6914692466 Eh

Convergence Acceleration:
 DIIS                   CNVDIIS         .... on
   Start iteration      DIISMaxIt       ....    12
   Startup error        DIISStart       ....  0.200000
   # of expansion vecs  DIISMaxEq       ....     5
   Bias factor          DIISBfac        ....   1.050
   Max. coefficient     DIISMaxC        ....  10.000
 Trust-Rad. Augm. Hess. CNVTRAH         .... auto
   Auto Start mean grad. ratio tolernc. ....  1.125000
   Auto Start start iteration           ....    20
   Auto Start num. interpolation iter.  ....    10
   Max. Number of Micro iterations      ....    16
   Max. Number of Macro iterations      .... Maxiter - #DIIS iter
   Number of Davidson start vectors     ....     2
   Converg. threshold I  (grad. norm)   ....   2.000e-06
   Converg. threshold II (energy diff.) ....   1.000e-09
   Grad. Scal. Fac. for Micro threshold ....   0.100
   Minimum threshold for Micro iter.    ....   0.010
   NR start threshold (gradient norm)   ....   0.001
   Initial trust radius                 ....   0.400
   Minimum AH scaling param. (alpha)    ....   1.000
   Maximum AH scaling param. (alpha)    .... 1000.000
   Orbital update algorithm             .... Taylor
   White noise on init. David. guess    .... on
   Maximum white noise                  ....   0.010
   Quad. conv. algorithm                .... NR
 SOSCF                  CNVSOSCF        .... on
   Start iteration      SOSCFMaxIt      ....   150
   Startup grad/error   SOSCFStart      ....  0.003300
 Level Shifting         CNVShift        .... on
   Level shift para.    LevelShift      ....    0.2500
   Turn off err/grad.   ShiftErr        ....    0.0010
 Zerner damping         CNVZerner       .... off
 Static damping         CNVDamp         .... on
   Fraction old density DampFac         ....    0.7000
   Max. Damping (<1)    DampMax         ....    0.9800
   Min. Damping (>=0)   DampMin         ....    0.0000
   Turn off err/grad.   DampErr         ....    0.1000
 Fernandez-Rico         CNVRico         .... off

SCF Procedure:
 Maximum # iterations   MaxIter         ....   125
 SCF integral mode      SCFMode         .... Direct
   Integral package                     .... SHARK and LIBINT hybrid scheme
 Reset frequency        DirectResetFreq ....    20
 Integral Threshold     Thresh          ....  1.000e-12 Eh
 Primitive CutOff       TCut            ....  1.000e-14 Eh

Convergence Tolerance:
 Convergence Check Mode ConvCheckMode   .... Total+1el-Energy
 Convergence forced     ConvForced      .... 0
 Energy Change          TolE            ....  1.000e-09 Eh
 1-El. energy change                    ....  1.000e-06 Eh
 Orbital Gradient       TolG            ....  2.000e-06
 Orbital Rotation angle TolX            ....  2.000e-06
 DIIS Error             TolErr          ....  1.000e-08


Diagonalization of the overlap matrix:
Smallest eigenvalue                        ... 1.461e-04
Time for diagonalization                   ...    0.055 sec
Threshold for overlap eigenvalues          ... 1.000e-08
Number of eigenvalues below threshold      ... 0
Time for construction of square roots      ...    0.337 sec
Total time needed                          ...    0.451 sec

Time for model grid setup =    0.265 sec

------------------------------
INITIAL GUESS: MODEL POTENTIAL
------------------------------
Loading Hartree-Fock densities                     ... done
Calculating cut-offs                               ... done
Initializing the effective Hamiltonian             ... done
Setting up the integral package (SHARK)            ... done
Starting the Coulomb interaction                   ... done (   0.4 sec)
Reading the grid                                   ... done
Mapping shells                                     ... done
Starting the XC term evaluation                    ... done (   0.2 sec)
  promolecular density results
     # of electrons  =    100.995631139
     EX              =    -58.977764193
     EC              =     -4.265138733
     EX+EC           =    -63.242902927
Transforming the Hamiltonian                       ... done (   0.0 sec)
Diagonalizing the Hamiltonian                      ... done (   0.0 sec)
Back transforming the eigenvectors                 ... done (   0.0 sec)
Now organizing SCF variables                       ... done
                      ------------------
                      INITIAL GUESS DONE (   0.9 sec)
                      ------------------
-------------------
DFT GRID GENERATION
-------------------

General Integration Accuracy     IntAcc      ... 4.959
Radial Grid Type                 RadialGrid  ... OptM3 with GC (2021)
Angular Grid (max. ang.)         AngularGrid ... 6 (Lebedev-590)
Angular grid pruning method      GridPruning ... 4 (adaptive)
Weight generation scheme         WeightScheme... Becke
Basis function cutoff            BFCut       ... 1.0000e-12
Integration weight cutoff        WCut        ... 1.0000e-14
Angular grids for H and He will be reduced by one unit
Partially contracted basis set               ... off
Rotationally invariant grid construction     ... off

Total number of grid points                  ...   290104
Total number of batches                      ...     4547
Average number of points per batch           ...       63
Average number of grid points per atom       ...    11604
Time for grid setup =    3.561 sec

--------------------
COSX GRID GENERATION
--------------------

GRIDX 1
-------
General Integration Accuracy     IntAcc      ... 4.020
Radial Grid Type                 RadialGrid  ... OptM3 with GC (2021)
Angular Grid (max. ang.)         AngularGrid ... 2 (Lebedev-110)
Angular grid pruning method      GridPruning ... 4 (adaptive)
Weight generation scheme         WeightScheme... Becke
Basis function cutoff            BFCut       ... 1.0000e-12
Integration weight cutoff        WCut        ... 1.0000e-14
Angular grids for H and He will be reduced by one unit
Partially contracted basis set               ... on
Rotationally invariant grid construction     ... off

Total number of grid points                  ...    32497
Total number of batches                      ...      519
Average number of points per batch           ...       62
Average number of grid points per atom       ...     1300
UseSFitting                                  ... on

GRIDX 2
-------
General Integration Accuracy     IntAcc      ... 4.338
Radial Grid Type                 RadialGrid  ... OptM3 with GC (2021)
Angular Grid (max. ang.)         AngularGrid ... 3 (Lebedev-194)
Angular grid pruning method      GridPruning ... 4 (adaptive)
Weight generation scheme         WeightScheme... Becke
Basis function cutoff            BFCut       ... 1.0000e-12
Integration weight cutoff        WCut        ... 1.0000e-14
Angular grids for H and He will be reduced by one unit
Partially contracted basis set               ... on
Rotationally invariant grid construction     ... off

Total number of grid points                  ...    71272
Total number of batches                      ...     1126
Average number of points per batch           ...       63
Average number of grid points per atom       ...     2851
UseSFitting                                  ... on

GRIDX 3
-------
General Integration Accuracy     IntAcc      ... 4.871
Radial Grid Type                 RadialGrid  ... OptM3 with GC (2021)
Angular Grid (max. ang.)         AngularGrid ... 4 (Lebedev-302)
Angular grid pruning method      GridPruning ... 4 (adaptive)
Weight generation scheme         WeightScheme... Becke
Basis function cutoff            BFCut       ... 1.0000e-12
Integration weight cutoff        WCut        ... 1.0000e-14
Angular grids for H and He will be reduced by one unit
Partially contracted basis set               ... on
Rotationally invariant grid construction     ... off

Total number of grid points                  ...   135209
Total number of batches                      ...     2127
Average number of points per batch           ...       63
Average number of grid points per atom       ...     5408
UseSFitting                                  ... on

Time for X-Grid setup             =    3.156 sec

--------------
SCF ITERATIONS
--------------
ITER       Energy         Delta-E        Max-DP      RMS-DP      [F,P]     Damp
               ***  Starting incremental Fock matrix formation  ***
  0   -701.1764623617   0.000000000000 0.03259832  0.00038871  0.3427023 0.7000
  1   -701.2204175057  -0.043955143989 0.03020812  0.00034901  0.2340557 0.7000
                               ***Turning on DIIS***
  2   -701.2464989974  -0.026081491756 0.02430034  0.00027078  0.1623573 0.7000
  3   -701.2636507571  -0.017151759664 0.01963671  0.00021596  0.1119143 0.7000
  4   -701.2756433988  -0.011992641760 0.05037756  0.00056873  0.0773717 0.0000
                      *** Initiating the SOSCF procedure ***
                           *** Shutting down DIIS ***
                      *** Re-Reading the Fockian *** 
                      *** Removing any level shift *** 
ITER      Energy       Delta-E        Grad      Rot      Max-DP    RMS-DP
  5   -701.30446081  -0.0288174141  0.001666  0.001666  0.004218  0.000057
               *** Restarting incremental Fock matrix formation ***
  6   -701.30457254  -0.0001117279  0.000687  0.001297  0.002422  0.000033
  7   -701.30459910  -0.0000265621  0.000547  0.001631  0.001550  0.000022
  8   -701.30460459  -0.0000054879  0.000246  0.000391  0.000556  0.000007
  9   -701.30460602  -0.0000014341  0.000093  0.000097  0.000259  0.000003
 10   -701.30460614  -0.0000001105  0.000031  0.000038  0.000092  0.000001
 11   -701.30460622  -0.0000000837  0.000006  0.000017  0.000014  0.000000
 12   -701.30460622  -0.0000000022  0.000003  0.000003  0.000010  0.000000
 13   -701.30460622  -0.0000000009  0.000001  0.000003  0.000002  0.000000
 14   -701.30460622   0.0000000001  0.000001  0.000001  0.000001  0.000000
                  ***Gradient check signals convergence***
              ***Rediagonalizing the Fockian in SOSCF/NRSCF***

               *****************************************************
               *                     SUCCESS                       *
               *           SCF CONVERGED AFTER  15 CYCLES          *
               *****************************************************

Old exchange energy                            =    -27.828073745 Eh
New exchange energy                            =    -27.828074691 Eh
Exchange energy change after final integration =     -0.000000947 Eh
Total energy after final integration           =   -701.304607169 Eh
Final COS-X integration done in                =    28.550 sec

----------------
TOTAL SCF ENERGY
----------------

Total Energy       :         -701.30460717 Eh          -19083.46855 eV

Components:
Nuclear Repulsion  :          790.69146925 Eh           21515.80872 eV
Electronic Energy  :        -1491.99607642 Eh          -40599.27727 eV
One Electron Energy:        -2510.99161345 Eh          -68327.55551 eV
Two Electron Energy:         1018.99553704 Eh           27728.27824 eV
Max COSX asymmetry :            0.00000040 Eh               0.00001 eV

Virial components:
Potential Energy   :        -1399.24696653 Eh          -38075.44568 eV
Kinetic Energy     :          697.94235936 Eh           18991.97713 eV
Virial Ratio       :            2.00481737


DFT components:
N(Alpha)           :       49.999999431943 electrons
N(Beta)            :       49.999999431943 electrons
N(Total)           :       99.999998863887 electrons
E(X)               :      -60.045453178175 Eh       
E(C)               :       -4.264692403661 Eh       
E(XC)              :      -64.310145581836 Eh       
DFET-embed. en.    :        0.000000000000 Eh       

---------------
SCF CONVERGENCE
---------------

  Last Energy change         ...   -6.7416e-11  Tolerance :   1.0000e-09
  Last MAX-Density change    ...    2.1094e-15  Tolerance :   1.0000e-08
  Last RMS-Density change    ...    1.4326e-17  Tolerance :   1.0000e-09
  Last Orbital Gradient      ...    9.1422e-08  Tolerance :   2.0000e-06
  Last Orbital Rotation      ...    1.1593e-07  Tolerance :   2.0000e-06

             **** THE GBW FILE WAS UPDATED (GGG-H_tt_015_OptFreq.gbw) ****
             **** DENSITY GGG-H_tt_015_OptFreq.scfp WAS UPDATED ****
             **** ENERGY FILE WAS UPDATED (GGG-H_tt_015_OptFreq.en.tmp) ****
             **** THE GBW FILE WAS UPDATED (GGG-H_tt_015_OptFreq.gbw) ****
             **** DENSITY GGG-H_tt_015_OptFreq.scfp WAS UPDATED ****
----------------
ORBITAL ENERGIES
----------------

  NO   OCC          E(Eh)            E(eV) 
   0   2.0000     -19.371147      -527.1157 
   1   2.0000     -19.368978      -527.0567 
   2   2.0000     -19.315437      -525.5998 
   3   2.0000     -19.315160      -525.5922 
   4   2.0000     -14.689678      -399.7265 
   5   2.0000     -14.602787      -397.3620 
   6   2.0000     -14.565009      -396.3341 
   7   2.0000     -10.559235      -287.3314 
   8   2.0000     -10.522433      -286.3300 
   9   2.0000     -10.519948      -286.2623 
  10   2.0000     -10.513658      -286.0912 
  11   2.0000     -10.463285      -284.7205 
  12   2.0000     -10.438102      -284.0352 
  13   2.0000      -1.361367       -37.0447 
  14   2.0000      -1.350358       -36.7451 
  15   2.0000      -1.306253       -35.5450 
  16   2.0000      -1.282084       -34.8873 
  17   2.0000      -1.260260       -34.2934 
  18   2.0000      -1.224139       -33.3105 
  19   2.0000      -1.185063       -32.2472 
  20   2.0000      -1.058711       -28.8090 
  21   2.0000      -1.016047       -27.6481 
  22   2.0000      -0.976071       -26.5602 
  23   2.0000      -0.883158       -24.0320 
  24   2.0000      -0.870131       -23.6775 
  25   2.0000      -0.869106       -23.6496 
  26   2.0000      -0.852007       -23.1843 
  27   2.0000      -0.829635       -22.5755 
  28   2.0000      -0.801160       -21.8007 
  29   2.0000      -0.769877       -20.9494 
  30   2.0000      -0.753042       -20.4913 
  31   2.0000      -0.744209       -20.2510 
  32   2.0000      -0.726079       -19.7576 
  33   2.0000      -0.725026       -19.7290 
  34   2.0000      -0.718449       -19.5500 
  35   2.0000      -0.707278       -19.2460 
  36   2.0000      -0.690478       -18.7889 
  37   2.0000      -0.688044       -18.7226 
  38   2.0000      -0.662781       -18.0352 
  39   2.0000      -0.659975       -17.9588 
  40   2.0000      -0.640179       -17.4201 
  41   2.0000      -0.632334       -17.2067 
  42   2.0000      -0.608993       -16.5715 
  43   2.0000      -0.599569       -16.3151 
  44   2.0000      -0.568067       -15.4579 
  45   2.0000      -0.540086       -14.6965 
  46   2.0000      -0.533517       -14.5177 
  47   2.0000      -0.512832       -13.9549 
  48   2.0000      -0.500297       -13.6138 
  49   2.0000      -0.488476       -13.2921 
  50   0.0000      -0.079632        -2.1669 
  51   0.0000      -0.070910        -1.9296 
  52   0.0000      -0.026023        -0.7081 
  53   0.0000      -0.025501        -0.6939 
  54   0.0000      -0.018741        -0.5100 
  55   0.0000      -0.009972        -0.2714 
  56   0.0000       0.000400         0.0109 
  57   0.0000       0.022919         0.6237 
  58   0.0000       0.027415         0.7460 
  59   0.0000       0.032672         0.8890 
  60   0.0000       0.045995         1.2516 
  61   0.0000       0.049232         1.3397 
  62   0.0000       0.059190         1.6106 
  63   0.0000       0.060222         1.6387 
  64   0.0000       0.081125         2.2075 
  65   0.0000       0.084965         2.3120 
  66   0.0000       0.104633         2.8472 
  67   0.0000       0.114157         3.1064 
  68   0.0000       0.118497         3.2245 
  69   0.0000       0.125959         3.4275 
  70   0.0000       0.133749         3.6395 
  71   0.0000       0.134966         3.6726 
  72   0.0000       0.148253         4.0342 
  73   0.0000       0.163944         4.4611 
  74   0.0000       0.182908         4.9772 
  75   0.0000       0.184442         5.0189 
  76   0.0000       0.193252         5.2587 
  77   0.0000       0.202536         5.5113 
  78   0.0000       0.207115         5.6359 
  79   0.0000       0.217763         5.9256 
  80   0.0000       0.221369         6.0238 
  81   0.0000       0.222885         6.0650 
  82   0.0000       0.228780         6.2254 
  83   0.0000       0.255859         6.9623 
  84   0.0000       0.274136         7.4596 
  85   0.0000       0.279678         7.6104 
  86   0.0000       0.280190         7.6244 
  87   0.0000       0.293048         7.9742 
  88   0.0000       0.297420         8.0932 
  89   0.0000       0.298150         8.1131 
  90   0.0000       0.310235         8.4419 
  91   0.0000       0.314113         8.5475 
  92   0.0000       0.320492         8.7210 
  93   0.0000       0.326245         8.8776 
  94   0.0000       0.333241         9.0680 
  95   0.0000       0.343810         9.3556 
  96   0.0000       0.346490         9.4285 
  97   0.0000       0.354621         9.6497 
  98   0.0000       0.368469        10.0266 
  99   0.0000       0.370629        10.0853 
 100   0.0000       0.374377        10.1873 
 101   0.0000       0.377493        10.2721 
 102   0.0000       0.385472        10.4892 
 103   0.0000       0.390402        10.6234 
 104   0.0000       0.391636        10.6570 
 105   0.0000       0.400960        10.9107 
 106   0.0000       0.408500        11.1159 
 107   0.0000       0.411221        11.1899 
 108   0.0000       0.430505        11.7146 
 109   0.0000       0.431966        11.7544 
 110   0.0000       0.435904        11.8615 
 111   0.0000       0.441253        12.0071 
 112   0.0000       0.454982        12.3807 
 113   0.0000       0.461898        12.5689 
 114   0.0000       0.468256        12.7419 
 115   0.0000       0.485317        13.2061 
 116   0.0000       0.492049        13.3893 
 117   0.0000       0.500594        13.6219 
 118   0.0000       0.506514        13.7829 
 119   0.0000       0.517843        14.0912 
 120   0.0000       0.519216        14.1286 
 121   0.0000       0.526930        14.3385 
 122   0.0000       0.546412        14.8686 
 123   0.0000       0.554120        15.0784 
 124   0.0000       0.558721        15.2036 
 125   0.0000       0.581530        15.8242 
 126   0.0000       0.588403        16.0113 
 127   0.0000       0.596615        16.2347 
 128   0.0000       0.609314        16.5803 
 129   0.0000       0.623389        16.9633 
 130   0.0000       0.635632        17.2964 
 131   0.0000       0.637417        17.3450 
 132   0.0000       0.645147        17.5553 
 133   0.0000       0.657518        17.8920 
 134   0.0000       0.674076        18.3425 
 135   0.0000       0.681460        18.5435 
 136   0.0000       0.682421        18.5696 
 137   0.0000       0.698127        18.9970 
 138   0.0000       0.711900        19.3718 
 139   0.0000       0.731109        19.8945 
 140   0.0000       0.740055        20.1379 
 141   0.0000       0.742947        20.2166 
 142   0.0000       0.760443        20.6927 
 143   0.0000       0.774852        21.0848 
 144   0.0000       0.786138        21.3919 
 145   0.0000       0.789481        21.4829 
 146   0.0000       0.790855        21.5202 
 147   0.0000       0.796157        21.6645 
 148   0.0000       0.828948        22.5568 
 149   0.0000       0.831763        22.6334 
 150   0.0000       0.842522        22.9262 
 151   0.0000       0.852233        23.1904 
 152   0.0000       0.870590        23.6900 
 153   0.0000       0.896645        24.3990 
 154   0.0000       0.900949        24.5161 
 155   0.0000       0.913692        24.8628 
 156   0.0000       0.918879        25.0040 
 157   0.0000       0.924732        25.1632 
 158   0.0000       0.930697        25.3255 
 159   0.0000       0.932038        25.3620 
 160   0.0000       0.946178        25.7468 
 161   0.0000       0.949865        25.8471 
 162   0.0000       0.961666        26.1683 
 163   0.0000       0.971961        26.4484 
 164   0.0000       0.977817        26.6078 
 165   0.0000       0.997659        27.1477 
 166   0.0000       1.012767        27.5588 
 167   0.0000       1.015665        27.6376 
 168   0.0000       1.027565        27.9615 
 169   0.0000       1.031038        28.0560 
 170   0.0000       1.035137        28.1675 
 171   0.0000       1.039025        28.2733 
 172   0.0000       1.062493        28.9119 
 173   0.0000       1.075213        29.2580 
 174   0.0000       1.088175        29.6107 
 175   0.0000       1.090357        29.6701 
 176   0.0000       1.097412        29.8621 
 177   0.0000       1.126646        30.6576 
 178   0.0000       1.129659        30.7396 
 179   0.0000       1.147953        31.2374 
 180   0.0000       1.154230        31.4082 
 181   0.0000       1.172514        31.9057 
 182   0.0000       1.184519        32.2324 
 183   0.0000       1.199598        32.6427 
 184   0.0000       1.204496        32.7760 
 185   0.0000       1.216768        33.1100 
 186   0.0000       1.229203        33.4483 
 187   0.0000       1.232204        33.5300 
 188   0.0000       1.240176        33.7469 
 189   0.0000       1.244995        33.8780 
 190   0.0000       1.264272        34.4026 
 191   0.0000       1.286199        34.9992 
 192   0.0000       1.315722        35.8026 
 193   0.0000       1.324515        36.0419 
 194   0.0000       1.329887        36.1881 
 195   0.0000       1.336638        36.3718 
 196   0.0000       1.351628        36.7797 
 197   0.0000       1.352897        36.8142 
 198   0.0000       1.363735        37.1091 
 199   0.0000       1.375149        37.4197 
 200   0.0000       1.375815        37.4378 
 201   0.0000       1.382153        37.6103 
 202   0.0000       1.400232        38.1023 
 203   0.0000       1.407774        38.3075 
 204   0.0000       1.421027        38.6681 
 205   0.0000       1.431080        38.9417 
 206   0.0000       1.446977        39.3742 
 207   0.0000       1.447399        39.3857 
 208   0.0000       1.461846        39.7789 
 209   0.0000       1.473869        40.1060 
 210   0.0000       1.475588        40.1528 
 211   0.0000       1.488934        40.5159 
 212   0.0000       1.519105        41.3370 
 213   0.0000       1.522570        41.4312 
 214   0.0000       1.529726        41.6260 
 215   0.0000       1.544711        42.0337 
 216   0.0000       1.548657        42.1411 
 217   0.0000       1.568485        42.6806 
 218   0.0000       1.578303        42.9478 
 219   0.0000       1.592369        43.3306 
 220   0.0000       1.602841        43.6155 
 221   0.0000       1.626449        44.2579 
 222   0.0000       1.630205        44.3601 
 223   0.0000       1.659621        45.1606 
 224   0.0000       1.672509        45.5113 
 225   0.0000       1.695153        46.1275 
 226   0.0000       1.705559        46.4106 
 227   0.0000       1.712527        46.6002 
 228   0.0000       1.717990        46.7489 
 229   0.0000       1.749195        47.5980 
 230   0.0000       1.774746        48.2933 
 231   0.0000       1.776426        48.3390 
 232   0.0000       1.784685        48.5637 
 233   0.0000       1.800501        48.9941 
 234   0.0000       1.812611        49.3237 
 235   0.0000       1.832969        49.8776 
 236   0.0000       1.866790        50.7979 
 237   0.0000       1.888035        51.3760 
 238   0.0000       1.908312        51.9278 
 239   0.0000       1.908866        51.9429 
 240   0.0000       1.929153        52.4949 
 241   0.0000       1.948535        53.0223 
 242   0.0000       1.954141        53.1749 
 243   0.0000       1.974076        53.7173 
 244   0.0000       1.981323        53.9145 
 245   0.0000       2.001372        54.4601 
 246   0.0000       2.005697        54.5778 
 247   0.0000       2.025254        55.1100 
 248   0.0000       2.064831        56.1869 
 249   0.0000       2.078290        56.5532 
 250   0.0000       2.118490        57.6470 
 251   0.0000       2.119523        57.6752 
 252   0.0000       2.138336        58.1871 
 253   0.0000       2.160388        58.7872 
 254   0.0000       2.177840        59.2620 
 255   0.0000       2.196350        59.7657 
 256   0.0000       2.224785        60.5395 
 257   0.0000       2.240255        60.9604 
 258   0.0000       2.273586        61.8674 
 259   0.0000       2.295658        62.4680 
 260   0.0000       2.323363        63.2219 
 261   0.0000       2.336661        63.5838 
 262   0.0000       2.343822        63.7786 
 263   0.0000       2.350007        63.9469 
 264   0.0000       2.364902        64.3522 
 265   0.0000       2.378165        64.7132 
 266   0.0000       2.414617        65.7051 
 267   0.0000       2.422353        65.9156 
 268   0.0000       2.443678        66.4958 
 269   0.0000       2.460464        66.9526 
 270   0.0000       2.487199        67.6801 
 271   0.0000       2.530715        68.8643 
 272   0.0000       2.535318        68.9895 
 273   0.0000       2.540026        69.1176 
 274   0.0000       2.564526        69.7843 
 275   0.0000       2.575365        70.0792 
 276   0.0000       2.594501        70.6000 
 277   0.0000       2.601146        70.7808 
 278   0.0000       2.619074        71.2686 
 279   0.0000       2.623068        71.3773 
 280   0.0000       2.630441        71.5779 
 281   0.0000       2.638047        71.7849 
 282   0.0000       2.656125        72.2768 
 283   0.0000       2.671985        72.7084 
 284   0.0000       2.675876        72.8143 
 285   0.0000       2.702432        73.5369 
 286   0.0000       2.707274        73.6687 
 287   0.0000       2.744165        74.6725 
 288   0.0000       2.746550        74.7374 
 289   0.0000       2.763176        75.1898 
 290   0.0000       2.765338        75.2487 
 291   0.0000       2.787710        75.8575 
 292   0.0000       2.794270        76.0360 
 293   0.0000       2.802726        76.2660 
 294   0.0000       2.820075        76.7382 
 295   0.0000       2.822699        76.8095 
 296   0.0000       2.840388        77.2909 
 297   0.0000       2.843014        77.3624 
 298   0.0000       2.852928        77.6321 
 299   0.0000       2.861074        77.8538 
 300   0.0000       2.872509        78.1649 
 301   0.0000       2.886602        78.5484 
 302   0.0000       2.895412        78.7882 
 303   0.0000       2.896898        78.8286 
 304   0.0000       2.917341        79.3849 
 305   0.0000       2.926602        79.6369 
 306   0.0000       2.935806        79.8873 
 307   0.0000       2.947531        80.2064 
 308   0.0000       2.948842        80.2421 
 309   0.0000       2.957566        80.4795 
 310   0.0000       2.961199        80.5783 
 311   0.0000       2.963397        80.6381 
 312   0.0000       2.977267        81.0155 
 313   0.0000       2.988823        81.3300 
 314   0.0000       3.024702        82.3063 
 315   0.0000       3.039226        82.7015 
 316   0.0000       3.045038        82.8597 
 317   0.0000       3.056836        83.1807 
 318   0.0000       3.062369        83.3313 
 319   0.0000       3.083750        83.9131 
 320   0.0000       3.096051        84.2478 
 321   0.0000       3.105910        84.5161 
 322   0.0000       3.111364        84.6645 
 323   0.0000       3.122431        84.9657 
 324   0.0000       3.124978        85.0350 
 325   0.0000       3.132004        85.2262 
 326   0.0000       3.134745        85.3007 
 327   0.0000       3.148286        85.6692 
 328   0.0000       3.166024        86.1519 
 329   0.0000       3.173961        86.3679 
 330   0.0000       3.178418        86.4891 
 331   0.0000       3.192605        86.8752 
 332   0.0000       3.196638        86.9849 
 333   0.0000       3.198814        87.0442 
 334   0.0000       3.219976        87.6200 
 335   0.0000       3.220955        87.6466 
 336   0.0000       3.239859        88.1610 
 337   0.0000       3.263091        88.7932 
 338   0.0000       3.265202        88.8507 
 339   0.0000       3.282316        89.3164 
 340   0.0000       3.292770        89.6008 
 341   0.0000       3.314813        90.2006 
 342   0.0000       3.324185        90.4557 
 343   0.0000       3.327896        90.5567 
 344   0.0000       3.332983        90.6951 
 345   0.0000       3.339540        90.8735 
 346   0.0000       3.353095        91.2424 
 347   0.0000       3.370934        91.7278 
 348   0.0000       3.378246        91.9267 
 349   0.0000       3.378519        91.9342 
 350   0.0000       3.395474        92.3956 
 351   0.0000       3.413984        92.8992 
 352   0.0000       3.421334        93.0992 
 353   0.0000       3.445092        93.7457 
 354   0.0000       3.446336        93.7796 
 355   0.0000       3.455369        94.0254 
 356   0.0000       3.460200        94.1568 
 357   0.0000       3.461495        94.1921 
 358   0.0000       3.488478        94.9263 
 359   0.0000       3.498563        95.2007 
 360   0.0000       3.503624        95.3384 
 361   0.0000       3.516400        95.6861 
 362   0.0000       3.532666        96.1287 
 363   0.0000       3.548061        96.5476 
 364   0.0000       3.550389        96.6110 
 365   0.0000       3.556466        96.7764 
 366   0.0000       3.568255        97.0972 
 367   0.0000       3.571828        97.1944 
 368   0.0000       3.579426        97.4011 
 369   0.0000       3.600647        97.9786 
 370   0.0000       3.603432        98.0544 
 371   0.0000       3.616901        98.4209 
 372   0.0000       3.648807        99.2891 
 373   0.0000       3.652209        99.3817 
 374   0.0000       3.682716       100.2118 
 375   0.0000       3.683979       100.2462 
 376   0.0000       3.702568       100.7520 
 377   0.0000       3.708600       100.9162 
 378   0.0000       3.723793       101.3295 
 379   0.0000       3.734062       101.6090 
 380   0.0000       3.756087       102.2083 
 381   0.0000       3.756816       102.2282 
 382   0.0000       3.765282       102.4585 
 383   0.0000       3.783825       102.9631 
 384   0.0000       3.786254       103.0292 
 385   0.0000       3.803815       103.5071 
 386   0.0000       3.812815       103.7520 
 387   0.0000       3.828078       104.1673 
 388   0.0000       3.832074       104.2760 
 389   0.0000       3.844572       104.6161 
 390   0.0000       3.851190       104.7962 
 391   0.0000       3.861581       105.0790 
 392   0.0000       3.903057       106.2076 
 393   0.0000       3.919500       106.6550 
 394   0.0000       3.921761       106.7165 
 395   0.0000       3.953371       107.5767 
 396   0.0000       3.989862       108.5697 
 397   0.0000       3.995346       108.7189 
 398   0.0000       4.001551       108.8877 
 399   0.0000       4.016497       109.2944 
 400   0.0000       4.021433       109.4288 
 401   0.0000       4.022818       109.4664 
 402   0.0000       4.025062       109.5275 
 403   0.0000       4.033585       109.7594 
 404   0.0000       4.055653       110.3599 
 405   0.0000       4.075555       110.9015 
 406   0.0000       4.090237       111.3010 
 407   0.0000       4.092808       111.3710 
 408   0.0000       4.103173       111.6530 
 409   0.0000       4.123170       112.1972 
 410   0.0000       4.127315       112.3099 
 411   0.0000       4.144556       112.7791 
 412   0.0000       4.159444       113.1842 
 413   0.0000       4.167395       113.4006 
 414   0.0000       4.171863       113.5222 
 415   0.0000       4.191900       114.0674 
 416   0.0000       4.217708       114.7697 
 417   0.0000       4.227688       115.0412 
 418   0.0000       4.231778       115.1525 
 419   0.0000       4.243076       115.4600 
 420   0.0000       4.255834       115.8071 
 421   0.0000       4.264767       116.0502 
 422   0.0000       4.274490       116.3148 
 423   0.0000       4.277015       116.3835 
 424   0.0000       4.301083       117.0384 
 425   0.0000       4.331521       117.8667 
 426   0.0000       4.348044       118.3163 
 427   0.0000       4.356183       118.5378 
 428   0.0000       4.363505       118.7370 
 429   0.0000       4.410215       120.0081 
 430   0.0000       4.432732       120.6208 
 431   0.0000       4.453506       121.1861 
 432   0.0000       4.465310       121.5073 
 433   0.0000       4.472042       121.6905 
 434   0.0000       4.496144       122.3463 
 435   0.0000       4.504341       122.5694 
 436   0.0000       4.511040       122.7516 
 437   0.0000       4.544170       123.6531 
 438   0.0000       4.582512       124.6965 
 439   0.0000       4.602718       125.2463 
 440   0.0000       4.615501       125.5942 
 441   0.0000       4.624546       125.8403 
 442   0.0000       4.635546       126.1396 
 443   0.0000       4.639604       126.2500 
 444   0.0000       4.679681       127.3406 
 445   0.0000       4.699644       127.8838 
 446   0.0000       4.710685       128.1842 
 447   0.0000       4.734956       128.8447 
 448   0.0000       4.743959       129.0897 
 449   0.0000       4.769554       129.7862 
 450   0.0000       4.799301       130.5956 
 451   0.0000       4.805061       130.7523 
 452   0.0000       4.816423       131.0615 
 453   0.0000       4.832606       131.5019 
 454   0.0000       4.841140       131.7341 
 455   0.0000       4.857146       132.1697 
 456   0.0000       4.867392       132.4485 
 457   0.0000       4.877925       132.7351 
 458   0.0000       4.886161       132.9592 
 459   0.0000       4.892387       133.1286 
 460   0.0000       4.903218       133.4233 
 461   0.0000       4.929334       134.1340 
 462   0.0000       4.960853       134.9917 
 463   0.0000       4.978225       135.4644 
 464   0.0000       4.996778       135.9693 
 465   0.0000       5.023954       136.7087 
 466   0.0000       5.041979       137.1992 
 467   0.0000       5.052804       137.4938 
 468   0.0000       5.071715       138.0084 
 469   0.0000       5.134242       139.7098 
 470   0.0000       5.140606       139.8830 
 471   0.0000       5.167993       140.6282 
 472   0.0000       5.173431       140.7762 
 473   0.0000       5.185434       141.1028 
 474   0.0000       5.196375       141.4006 
 475   0.0000       5.218292       141.9970 
 476   0.0000       5.238067       142.5351 
 477   0.0000       5.256372       143.0332 
 478   0.0000       5.267614       143.3391 
 479   0.0000       5.275020       143.5406 
 480   0.0000       5.282878       143.7544 
 481   0.0000       5.287084       143.8689 
 482   0.0000       5.320594       144.7807 
 483   0.0000       5.337835       145.2499 
 484   0.0000       5.351740       145.6282 
 485   0.0000       5.363670       145.9529 
 486   0.0000       5.381711       146.4438 
 487   0.0000       5.391619       146.7134 
 488   0.0000       5.410120       147.2168 
 489   0.0000       5.411619       147.2576 
 490   0.0000       5.455346       148.4475 
 491   0.0000       5.463217       148.6617 
 492   0.0000       5.464696       148.7019 
 493   0.0000       5.479157       149.0955 
 494   0.0000       5.481047       149.1469 
 495   0.0000       5.523979       150.3151 
 496   0.0000       5.527102       150.4001 
 497   0.0000       5.576064       151.7324 
 498   0.0000       5.596923       152.3000 
 499   0.0000       5.598395       152.3401 
 500   0.0000       5.617968       152.8727 
 501   0.0000       5.645089       153.6107 
 502   0.0000       5.651849       153.7946 
 503   0.0000       5.667009       154.2072 
 504   0.0000       5.672530       154.3574 
 505   0.0000       5.705257       155.2479 
 506   0.0000       5.705719       155.2605 
 507   0.0000       5.750034       156.4664 
 508   0.0000       5.762195       156.7973 
 509   0.0000       5.775128       157.1492 
 510   0.0000       5.817906       158.3133 
 511   0.0000       5.818155       158.3200 
 512   0.0000       5.899115       160.5231 
 513   0.0000       5.928853       161.3323 
 514   0.0000       5.956070       162.0729 
 515   0.0000       5.959572       162.1682 
 516   0.0000       5.972037       162.5074 
 517   0.0000       6.000611       163.2849 
 518   0.0000       6.035247       164.2274 
 519   0.0000       6.064746       165.0301 
 520   0.0000       6.096978       165.9072 
 521   0.0000       6.132588       166.8762 
 522   0.0000       6.133733       166.9074 
 523   0.0000       6.167096       167.8152 
 524   0.0000       6.297738       171.3702 
 525   0.0000       6.313236       171.7919 
 526   0.0000       6.321614       172.0199 
 527   0.0000       6.338487       172.4790 
 528   0.0000       6.339532       172.5074 
 529   0.0000       6.375464       173.4852 
 530   0.0000       6.402232       174.2136 
 531   0.0000       6.427607       174.9041 
 532   0.0000       6.441271       175.2759 
 533   0.0000       6.454075       175.6243 
 534   0.0000       6.496151       176.7692 
 535   0.0000       6.558385       178.4627 
 536   0.0000       6.566081       178.6722 
 537   0.0000       6.573819       178.8827 
 538   0.0000       6.587180       179.2463 
 539   0.0000       6.702909       182.3954 
 540   0.0000       6.719067       182.8351 
 541   0.0000       6.721131       182.8913 
 542   0.0000       6.769151       184.1980 
 543   0.0000       6.769620       184.2107 
 544   0.0000       6.787295       184.6917 
 545   0.0000       6.819970       185.5808 
 546   0.0000       6.834660       185.9806 
 547   0.0000       6.841958       186.1792 
 548   0.0000       6.861065       186.6991 
 549   0.0000       6.956043       189.2836 
 550   0.0000       7.087383       192.8575 
 551   0.0000       7.089026       192.9022 
 552   0.0000       7.177519       195.3102 
 553   0.0000       7.216534       196.3719 
 554   0.0000       7.258047       197.5015 
 555   0.0000       7.260424       197.5662 
 556   0.0000       7.398987       201.3367 
 557   0.0000       7.510198       204.3629 
 558   0.0000      23.115906       629.0158 
 559   0.0000      23.188288       630.9854 
 560   0.0000      23.261604       632.9804 
 561   0.0000      23.339504       635.1002 
 562   0.0000      23.424422       637.4109 
 563   0.0000      23.451104       638.1370 
 564   0.0000      32.662811       888.8003 
 565   0.0000      32.951790       896.6638 
 566   0.0000      33.018607       898.4820 
 567   0.0000      43.834624      1192.8008 
 568   0.0000      43.861901      1193.5430 
 569   0.0000      43.882431      1194.1016 
 570   0.0000      43.907328      1194.7791 

                    ********************************
                    * MULLIKEN POPULATION ANALYSIS *
                    ********************************

-----------------------
MULLIKEN ATOMIC CHARGES
-----------------------
   0 N :   -0.193731
   1 H :    0.192769
   2 C :   -0.063517
   3 C :    0.312915
   4 H :    0.137107
   5 H :    0.137102
   6 O :   -0.334861
   7 C :    0.288605
   8 C :   -0.108039
   9 O :   -0.401203
  10 N :   -0.171092
  11 H :    0.146347
  12 H :    0.146217
  13 H :    0.202559
  14 C :    0.273617
  15 C :   -0.153420
  16 O :   -0.356794
  17 H :    0.168653
  18 H :    0.168696
  19 O :   -0.256843
  20 H :    0.253076
  21 N :   -0.098535
  22 H :    0.235775
  23 H :    0.238836
  24 H :    0.235761
Sum of atomic charges:    1.0000000

--------------------------------
MULLIKEN REDUCED ORBITAL CHARGES
--------------------------------
  0 N s       :     3.424352  s :     3.424352
      pz      :     1.598972  p :     3.711066
      px      :     1.038588
      py      :     1.073507
      dz2     :     0.004773  d :     0.054401
      dxz     :     0.012216
      dyz     :     0.003477
      dx2y2   :     0.017927
      dxy     :     0.016008
      f0      :     0.000691  f :     0.003911
      f+1     :     0.000636
      f-1     :     0.000457
      f+2     :     0.000170
      f-2     :     0.000422
      f+3     :     0.000773
      f-3     :     0.000763
  1 H s       :     0.735832  s :     0.735832
      pz      :     0.023623  p :     0.065946
      px      :     0.015774
      py      :     0.026549
      dz2     :     0.000393  d :     0.005453
      dxz     :     0.000065
      dyz     :     0.002137
      dx2y2   :     0.001358
      dxy     :     0.001500
  2 C s       :     3.144649  s :     3.144649
      pz      :     1.097869  p :     2.800217
      px      :     0.739247
      py      :     0.963102
      dz2     :     0.012059  d :     0.110570
      dxz     :     0.033002
      dyz     :     0.025302
      dx2y2   :     0.018936
      dxy     :     0.021271
      f0      :     0.001111  f :     0.008080
      f+1     :     0.000846
      f-1     :     0.000735
      f+2     :     0.001429
      f-2     :     0.000485
      f+3     :     0.001732
      f-3     :     0.001742
  3 C s       :     3.068163  s :     3.068163
      pz      :     0.725752  p :     2.316573
      px      :     0.725739
      py      :     0.865082
      dz2     :     0.008440  d :     0.278253
      dxz     :     0.053461
      dyz     :     0.049591
      dx2y2   :     0.082774
      dxy     :     0.083987
      f0      :     0.003130  f :     0.024096
      f+1     :     0.001264
      f-1     :     0.001355
      f+2     :     0.003520
      f-2     :     0.001809
      f+3     :     0.004086
      f-3     :     0.008932
  4 H s       :     0.825939  s :     0.825939
      pz      :     0.015069  p :     0.034850
      px      :     0.007151
      py      :     0.012630
      dz2     :     0.000686  d :     0.002103
      dxz     :     0.000440
      dyz     :     0.000340
      dx2y2   :     0.000322
      dxy     :     0.000315
  5 H s       :     0.825971  s :     0.825971
      pz      :     0.015150  p :     0.034825
      px      :     0.007213
      py      :     0.012461
      dz2     :     0.000684  d :     0.002102
      dxz     :     0.000438
      dyz     :     0.000351
      dx2y2   :     0.000325
      dxy     :     0.000305
  6 O s       :     3.813376  s :     3.813376
      pz      :     1.411112  p :     4.487878
      px      :     1.675826
      py      :     1.400939
      dz2     :     0.002767  d :     0.031773
      dxz     :     0.001766
      dyz     :     0.009927
      dx2y2   :     0.008657
      dxy     :     0.008656
      f0      :     0.000203  f :     0.001835
      f+1     :     0.000061
      f-1     :     0.000154
      f+2     :     0.000181
      f-2     :     0.000268
      f+3     :     0.000443
      f-3     :     0.000524
[...]
     53       0.000056  -0.582587   0.000630   0.572981   0.000782   0.004547
     54      -0.000004  -0.140897  -0.000278  -0.139282   0.001463  -0.003065
     55      -0.000023  -0.369973  -0.000120  -0.382886   0.001378   0.001645
     56       0.000030   0.583804   0.000673   0.573420  -0.000771  -0.004516
     57       0.000000   0.000010  -0.000000  -0.000000   0.000034  -0.000012
     58      -0.000000   0.000002  -0.000000  -0.000000   0.000051  -0.000017
     59       0.000072   0.000000   0.000001  -0.000000   0.000000  -0.000000
     60      -0.000006   0.000022  -0.000000  -0.000000   0.000561  -0.000144
     61       0.000021  -0.000068   0.000001   0.000000  -0.001123   0.000323
     62       0.000961   0.000001  -0.000021   0.000002   0.000011  -0.000003
     63       0.000000  -0.000747  -0.000000  -0.000002  -0.003370   0.049573
     64      -0.000000   0.000335  -0.000001   0.000001   0.001545  -0.031874
     65      -0.000001   0.000002   0.000002   0.002408   0.000002  -0.000021
     66      -0.000007  -0.001228   0.000005   0.000769   0.023764  -0.337531
     67       0.000005   0.001788   0.000034  -0.006176  -0.014775   0.210021
     68       0.000004   0.005093  -0.000054  -0.010342  -0.040923   0.581501
     69       0.000000  -0.006678  -0.000004   0.000020  -0.004401   0.012819
     70       0.000001  -0.024210   0.000013   0.000028   0.009134   0.024086
     71      -0.000008  -0.000004  -0.000238  -0.000929  -0.000009   0.000000
     72       0.000006  -0.001226  -0.000005  -0.000755   0.023688  -0.336420
     73      -0.000005   0.001809  -0.000036   0.006159  -0.014750   0.209637
     74       0.000004  -0.005121  -0.000052  -0.010305   0.040901  -0.581187
                 72         73         74    
      0       0.000000   0.015984   0.000151
      1       0.000000   0.071840  -0.000330
      2      -0.000002  -0.000093   0.000002
      3      -0.000002  -0.230556  -0.000062
      4      -0.000007  -0.969959   0.003666
      5       0.000031   0.001265  -0.000015
      6      -0.000000   0.000042   0.000135
      7      -0.000000   0.000237  -0.000647
      8       0.000003  -0.000001   0.000005
      9      -0.000000  -0.000208  -0.002110
     10      -0.000000  -0.000716   0.001592
     11       0.000001   0.000001  -0.000027
     12      -0.000006  -0.004645   0.001431
     13      -0.000006  -0.001792   0.000809
     14      -0.000004  -0.004536   0.001359
     15       0.000006  -0.004699   0.001455
     16       0.000006  -0.001719   0.000796
     17      -0.000004   0.004456  -0.001345
     18       0.000000   0.000163   0.000728
     19       0.000000   0.000551   0.000571
     20      -0.000001  -0.000000   0.000004
     21      -0.000000   0.000897  -0.000159
     22       0.000000  -0.000520   0.000153
     23       0.000003   0.000004  -0.000001
     24      -0.000000  -0.000199   0.000004
     25       0.000000   0.000287   0.000024
     26       0.000002  -0.000002   0.000000
     27       0.000000   0.000275   0.000032
     28      -0.000000  -0.001594  -0.000078
     29      -0.000005   0.000003   0.000000
     30       0.000000   0.001011   0.000096
     31      -0.000000   0.001370   0.000059
     32      -0.000032   0.000002   0.000000
     33       0.000028   0.000140   0.000009
     34      -0.000006  -0.001400  -0.000100
     35       0.000025  -0.000600  -0.000098
     36      -0.000029   0.000133   0.000007
     37       0.000006  -0.001429  -0.000100
     38       0.000026   0.000622   0.000098
     39      -0.000001  -0.011854  -0.000732
     40      -0.000001  -0.018446  -0.000832
     41       0.000050  -0.000034  -0.000002
     42       0.000002  -0.000340  -0.000079
     43       0.000000  -0.000115  -0.000015
     44      -0.000068  -0.000000  -0.000000
     45       0.000003  -0.000009  -0.000005
     46      -0.000000  -0.000016  -0.000006
     47      -0.000976   0.000000  -0.000000
     48       0.000000   0.000080   0.000028
     49      -0.000000   0.000069   0.000013
     50       0.000011   0.000000   0.000000
     51       0.003013   0.000010   0.000014
     52       0.006206   0.000071   0.000026
     53       0.009643   0.000124   0.000031
     54      -0.003038   0.000011   0.000014
     55      -0.006197   0.000071   0.000025
     56       0.009676  -0.000124  -0.000031
     57       0.000000   0.000236  -0.031128
     58       0.000000   0.000403   0.052967
     59      -0.000001  -0.000000  -0.000554
     60       0.000000   0.001112   0.502401
     61      -0.000001  -0.003548  -0.862384
     62       0.000013   0.000028   0.008983
     63       0.000012   0.000167   0.000028
     64       0.000016  -0.000123  -0.000028
     65      -0.082139   0.000001   0.000000
     66      -0.347337  -0.001000  -0.000148
     67       0.220317   0.000580   0.000081
     68       0.571484   0.001690   0.000230
     69      -0.000002  -0.000286  -0.000138
     70      -0.000035   0.000517   0.000257
     71      -0.009491  -0.000000  -0.000000
     72       0.347137  -0.001001  -0.000147
     73      -0.220502   0.000582   0.000081
     74       0.572694  -0.001697  -0.000231


-----------
IR SPECTRUM
-----------

 Mode   freq       eps      Int      T**2         TX        TY        TZ
       cm**-1   L/(mol*cm) km/mol    a.u.
----------------------------------------------------------------------------
  6:     19.18   0.001031    5.21  0.016774  (-0.000128 -0.000386  0.129513)
  7:     38.62   0.000053    0.27  0.000431  ( 0.000203  0.000349  0.020748)
  8:     57.21   0.001177    5.95  0.006422  (-0.045942 -0.065663 -0.000382)
  9:     63.69   0.000436    2.20  0.002135  ( 0.000183  0.000331  0.046207)
 10:     79.28   0.000093    0.47  0.000366  ( 0.000420  0.000078 -0.019114)
 11:     96.91   0.003829   19.35  0.012332  ( 0.000908 -0.000058 -0.111044)
 12:    134.81   0.004957   25.05  0.011475  ( 0.106855 -0.007456  0.001375)
 13:    168.83   0.000000    0.00  0.000001  ( 0.000692 -0.000291 -0.000527)
 14:    190.96   0.003194   16.14  0.005220  ( 0.000199  0.000193 -0.072247)
 15:    217.30   0.003025   15.29  0.004345  ( 0.060496 -0.026175 -0.000188)
 16:    287.19   0.005401   27.29  0.005868  ( 0.058146 -0.049873  0.000221)
 17:    316.53   0.012128   61.29  0.011957  (-0.102912  0.036965 -0.000102)
 18:    317.29   0.000024    0.12  0.000024  ( 0.001729 -0.000599  0.004544)
 19:    395.42   0.032125  162.35  0.025353  ( 0.132169 -0.088792  0.000335)
 20:    471.67   0.000933    4.72  0.000617  (-0.007581  0.023659  0.000299)
 21:    513.53   0.010776   54.46  0.006549  ( 0.000374 -0.000459 -0.080921)
 22:    542.51   0.000022    0.11  0.000012  (-0.000462 -0.000109 -0.003498)
 23:    568.89   0.008556   43.24  0.004693  ( 0.068355 -0.003798 -0.002500)
 24:    570.33   0.005511   27.85  0.003015  (-0.003280  0.000194 -0.054813)
 25:    634.36   0.010843   54.80  0.005334  ( 0.064539 -0.034173  0.001044)
 26:    638.58   0.001611    8.14  0.000787  (-0.000398  0.000413  0.028049)
 27:    664.61   0.023361  118.05  0.010969  (-0.001018  0.000594  0.104726)
 28:    693.96   0.000792    4.00  0.000356  (-0.018606  0.003184 -0.000002)
 29:    739.88   0.010608   53.61  0.004474  ( 0.000097  0.000261 -0.066888)
 30:    750.97   0.000321    1.62  0.000133  (-0.009176 -0.006978 -0.000619)
 31:    890.66   0.002310   11.68  0.000810  (-0.023673  0.015783 -0.000187)
 32:    931.63   0.002166   10.95  0.000726  (-0.000111  0.000061  0.026938)
 33:    965.37   0.005978   30.21  0.001932  ( 0.033022 -0.029016 -0.000021)
 34:   1008.55   0.024964  126.16  0.007724  ( 0.083710 -0.026768  0.000668)
 35:   1016.71   0.000458    2.32  0.000141  (-0.001618  0.000546  0.011737)
 36:   1028.23   0.000255    1.29  0.000078  ( 0.001657 -0.001195 -0.008565)
 37:   1028.77   0.001180    5.96  0.000358  ( 0.012710 -0.013999  0.000572)
 38:   1111.57   0.014253   72.03  0.004001  (-0.028522  0.056460  0.000045)
 39:   1114.10   0.000218    1.10  0.000061  (-0.000252  0.000378 -0.007809)
 40:   1121.39   0.019021   96.13  0.005293  ( 0.063816 -0.034939  0.000300)
 41:   1167.37   0.008326   42.08  0.002226  (-0.046916 -0.004953 -0.000321)
 42:   1207.63   0.044133  223.03  0.011404  (-0.106582  0.006616 -0.000951)
 43:   1253.42   0.000230    1.16  0.000057  ( 0.005101  0.000800 -0.005523)
 44:   1253.56   0.003637   18.38  0.000905  ( 0.029748  0.004150  0.001760)
 45:   1255.73   0.000439    2.22  0.000109  ( 0.001370  0.000331 -0.010352)
 46:   1271.58   0.003602   18.21  0.000884  ( 0.028134  0.009620  0.000091)
 47:   1321.76   0.000727    3.67  0.000172  (-0.000020 -0.000047 -0.013097)
 48:   1330.57   0.001101    5.56  0.000258  (-0.012541 -0.010042  0.000084)
 49:   1352.46   0.005360   27.09  0.001237  ( 0.034582 -0.006392  0.000133)
 50:   1399.23   0.005981   30.23  0.001334  ( 0.031222 -0.018947  0.000354)
 51:   1424.38   0.112685  569.46  0.024688  (-0.156793 -0.010187 -0.000354)
 52:   1466.74   0.034989  176.82  0.007444  (-0.081001  0.029705 -0.000791)
 53:   1498.51   0.005935   29.99  0.001236  (-0.020715 -0.028403 -0.000052)
 54:   1500.92   0.015321   77.43  0.003185  ( 0.047306 -0.030783  0.000139)
 55:   1506.53   0.001233    6.23  0.000255  ( 0.013205  0.009007  0.000070)
 56:   1584.32   0.121857  615.81  0.024002  (-0.134219  0.077374 -0.000649)
 57:   1599.72   0.012746   64.41  0.002486  (-0.049774 -0.002951 -0.000464)
 58:   1650.36   0.004739   23.95  0.000896  ( 0.019248 -0.022925 -0.000175)
 59:   1666.25   0.005996   30.30  0.001123  ( 0.000084 -0.000156  0.033511)
 60:   1775.68   0.066978  338.48  0.011771  ( 0.006843  0.108278 -0.000260)
 61:   1793.89   0.064159  324.24  0.011161  (-0.105565  0.004142 -0.000310)
 62:   1850.78   0.054782  276.84  0.009237  ( 0.060124  0.074980  0.000112)
 63:   2807.01   0.097524  492.85  0.010842  (-0.058582  0.086082 -0.000138)
 64:   3092.91   0.003145   15.89  0.000317  (-0.015724  0.008372 -0.000061)
 65:   3094.25   0.001000    5.05  0.000101  (-0.010001  0.000892 -0.000065)
 66:   3133.01   0.000115    0.58  0.000011  (-0.000015  0.000039 -0.003384)
 67:   3134.29   0.000854    4.31  0.000085  ( 0.005938 -0.007051  0.000028)
 68:   3138.33   0.000127    0.64  0.000013  (-0.000013  0.000011 -0.003561)
 69:   3195.80   0.000281    1.42  0.000027  (-0.000011  0.000002  0.005236)
 70:   3496.18   0.056971  287.91  0.005085  ( 0.069021  0.017921  0.000244)
 71:   3517.55   0.020573  103.97  0.001825  (-0.036307  0.022516 -0.000013)
 72:   3579.49   0.020371  102.94  0.001776  ( 0.000006 -0.000012  0.042142)
 73:   3613.97   0.026407  133.45  0.002280  ( 0.018009 -0.044225  0.000247)
 74:   3802.00   0.026755  135.21  0.002196  ( 0.036549 -0.029326  0.000466)

* The epsilon (eps) is given for a Dirac delta lineshape.
** The dipole moment derivative (T) already includes vibrational overlap.

The first frequency considered to be a vibration is 6
The total number of vibrations considered is 69


--------------------------
THERMOCHEMISTRY AT 298.15K
--------------------------

Temperature         ... 298.15 K
Pressure            ... 1.00 atm
Total Mass          ... 190.18 AMU

Throughout the following assumptions are being made:
  (1) The electronic state is orbitally nondegenerate
  (2) There are no thermally accessible electronically excited states
  (3) Hindered rotations indicated by low frequency modes are not
      treated as such but are treated as vibrations and this may
      cause some error
  (4) All equations used are the standard statistical mechanics
      equations for an ideal gas
  (5) All vibrations are strictly harmonic

freq.      19.18  E(vib)   ...       0.57 
freq.      38.62  E(vib)   ...       0.54 
freq.      57.21  E(vib)   ...       0.51 
freq.      63.69  E(vib)   ...       0.51 
freq.      79.28  E(vib)   ...       0.49 
freq.      96.91  E(vib)   ...       0.46 
freq.     134.81  E(vib)   ...       0.42 
freq.     168.83  E(vib)   ...       0.38 
freq.     190.96  E(vib)   ...       0.36 
freq.     217.30  E(vib)   ...       0.34 
freq.     287.19  E(vib)   ...       0.27 
freq.     316.53  E(vib)   ...       0.25 
freq.     317.29  E(vib)   ...       0.25 
freq.     395.42  E(vib)   ...       0.20 
freq.     471.67  E(vib)   ...       0.15 
freq.     513.53  E(vib)   ...       0.13 
freq.     542.51  E(vib)   ...       0.12 
freq.     568.89  E(vib)   ...       0.11 
freq.     570.33  E(vib)   ...       0.11 
freq.     634.36  E(vib)   ...       0.09 
freq.     638.58  E(vib)   ...       0.09 
freq.     664.61  E(vib)   ...       0.08 
freq.     693.96  E(vib)   ...       0.07 
freq.     739.88  E(vib)   ...       0.06 
freq.     750.97  E(vib)   ...       0.06 
freq.     890.66  E(vib)   ...       0.04 
freq.     931.63  E(vib)   ...       0.03 
freq.     965.37  E(vib)   ...       0.03 
freq.    1008.55  E(vib)   ...       0.02 
freq.    1016.71  E(vib)   ...       0.02 
freq.    1028.23  E(vib)   ...       0.02 
freq.    1028.77  E(vib)   ...       0.02 
freq.    1111.57  E(vib)   ...       0.01 
freq.    1114.10  E(vib)   ...       0.01 
freq.    1121.39  E(vib)   ...       0.01 
freq.    1167.37  E(vib)   ...       0.01 
freq.    1207.63  E(vib)   ...       0.01 
freq.    1253.42  E(vib)   ...       0.01 
freq.    1253.56  E(vib)   ...       0.01 
freq.    1255.73  E(vib)   ...       0.01 
freq.    1271.58  E(vib)   ...       0.01 
freq.    1321.76  E(vib)   ...       0.01 
freq.    1330.57  E(vib)   ...       0.01 
freq.    1352.46  E(vib)   ...       0.01 
freq.    1399.23  E(vib)   ...       0.00 
freq.    1424.38  E(vib)   ...       0.00 
freq.    1466.74  E(vib)   ...       0.00 
freq.    1498.51  E(vib)   ...       0.00 
freq.    1500.92  E(vib)   ...       0.00 
freq.    1506.53  E(vib)   ...       0.00 
freq.    1584.32  E(vib)   ...       0.00 
freq.    1599.72  E(vib)   ...       0.00 
freq.    1650.36  E(vib)   ...       0.00 
freq.    1666.25  E(vib)   ...       0.00 
freq.    1775.68  E(vib)   ...       0.00 
freq.    1793.89  E(vib)   ...       0.00 
freq.    1850.78  E(vib)   ...       0.00 
freq.    2807.01  E(vib)   ...       0.00 
freq.    3092.91  E(vib)   ...       0.00 
freq.    3094.25  E(vib)   ...       0.00 
freq.    3133.01  E(vib)   ...       0.00 
freq.    3134.29  E(vib)   ...       0.00 
freq.    3138.33  E(vib)   ...       0.00 
freq.    3195.80  E(vib)   ...       0.00 
freq.    3496.18  E(vib)   ...       0.00 
freq.    3517.55  E(vib)   ...       0.00 
freq.    3579.49  E(vib)   ...       0.00 
freq.    3613.97  E(vib)   ...       0.00 
freq.    3802.00  E(vib)   ...       0.00 

------------
INNER ENERGY
------------

The inner energy is: U= E(el) + E(ZPE) + E(vib) + E(rot) + E(trans)
    E(el)   - is the total energy from the electronic structure calculation
              = E(kin-el) + E(nuc-el) + E(el-el) + E(nuc-nuc)
    E(ZPE)  - the the zero temperature vibrational energy from the frequency calculation
    E(vib)  - the the finite temperature correction to E(ZPE) due to population
              of excited vibrational states
    E(rot)  - is the rotational thermal energy
    E(trans)- is the translational thermal energy

Summary of contributions to the inner energy U:
Electronic energy                ...   -701.34837268 Eh
Zero point energy                ...      0.20759957 Eh     130.27 kcal/mol
Thermal vibrational correction   ...      0.01108826 Eh       6.96 kcal/mol
Thermal rotational correction    ...      0.00141627 Eh       0.89 kcal/mol
Thermal translational correction ...      0.00141627 Eh       0.89 kcal/mol
-----------------------------------------------------------------------
Total thermal energy                   -701.12685231 Eh


Summary of corrections to the electronic energy:
(perhaps to be used in another calculation)
Total thermal correction                  0.01392080 Eh       8.74 kcal/mol
Non-thermal (ZPE) correction              0.20759957 Eh     130.27 kcal/mol
-----------------------------------------------------------------------
Total correction                          0.22152037 Eh     139.01 kcal/mol


--------
ENTHALPY
--------

The enthalpy is H = U + kB*T
                kB is Boltzmann's constant
Total free energy                 ...   -701.12685231 Eh 
Thermal Enthalpy correction       ...      0.00094421 Eh       0.59 kcal/mol
-----------------------------------------------------------------------
Total Enthalpy                    ...   -701.12590810 Eh


Note: Only C1 symmetry has been detected, increase convergence thresholds 
      if your molecule has a higher symmetry. Symmetry factor of 1.0 is   
      used for the rotational entropy correction. 
 

Note: Rotational entropy computed according to Herzberg 
Infrared and Raman Spectra, Chapter V,1, Van Nostrand Reinhold, 1945 
Point Group:  C1, Symmetry Number:   1  
Rotational constants in cm-1:     0.109702     0.007509     0.007064 

Vibrational entropy computed according to the QRRHO of S. Grimme
Chem.Eur.J. 2012 18 9955


-------
ENTROPY
-------

The entropy contributions are T*S = T*(S(el)+S(vib)+S(rot)+S(trans))
     S(el)   - electronic entropy
     S(vib)  - vibrational entropy
     S(rot)  - rotational entropy
     S(trans)- translational entropy
The entropies will be listed as multiplied by the temperature to get
units of energy

Electronic entropy                ...      0.00000000 Eh      0.00 kcal/mol
Vibrational entropy               ...      0.02023126 Eh     12.70 kcal/mol
Rotational entropy                ...      0.01520152 Eh      9.54 kcal/mol
Translational entropy             ...      0.01978162 Eh     12.41 kcal/mol
-----------------------------------------------------------------------
Final entropy term                ...      0.05521440 Eh     34.65 kcal/mol

In case the symmetry of your molecule has not been determined correctly
or in case you have a reason to use a different symmetry number we print 
out the resulting rotational entropy values for sn=1,12 :
 --------------------------------------------------------
|  sn= 1 | S(rot)=       0.01520152 Eh      9.54 kcal/mol|
|  sn= 2 | S(rot)=       0.01454707 Eh      9.13 kcal/mol|
|  sn= 3 | S(rot)=       0.01416424 Eh      8.89 kcal/mol|
|  sn= 4 | S(rot)=       0.01389261 Eh      8.72 kcal/mol|
|  sn= 5 | S(rot)=       0.01368192 Eh      8.59 kcal/mol|
|  sn= 6 | S(rot)=       0.01350978 Eh      8.48 kcal/mol|
|  sn= 7 | S(rot)=       0.01336423 Eh      8.39 kcal/mol|
|  sn= 8 | S(rot)=       0.01323816 Eh      8.31 kcal/mol|
|  sn= 9 | S(rot)=       0.01312695 Eh      8.24 kcal/mol|
|  sn=10 | S(rot)=       0.01302747 Eh      8.17 kcal/mol|
|  sn=11 | S(rot)=       0.01293748 Eh      8.12 kcal/mol|
|  sn=12 | S(rot)=       0.01285532 Eh      8.07 kcal/mol|
 --------------------------------------------------------


-------------------
GIBBS FREE ENERGY
-------------------

The Gibbs free energy is G = H - T*S

Total enthalpy                    ...   -701.12590810 Eh 
Total entropy correction          ...     -0.05521440 Eh    -34.65 kcal/mol
-----------------------------------------------------------------------
Final Gibbs free energy         ...   -701.18112251 Eh

For completeness - the Gibbs free energy minus the electronic energy
G-E(el)                           ...      0.16725018 Eh    104.95 kcal/mol


Timings for individual modules:

Sum of individual times         ...     5134.344 sec (=  85.572 min)
GTO integral calculation        ...       20.877 sec (=   0.348 min)   0.4 %
SCF iterations                  ...     1636.080 sec (=  27.268 min)  31.9 %
SCF Gradient evaluation         ...      336.009 sec (=   5.600 min)   6.5 %
Geometry relaxation             ...        1.138 sec (=   0.019 min)   0.0 %
Analytical frequency calculation...     2661.526 sec (=  44.359 min)  51.8 %
CHELPG charge generation        ...      478.714 sec (=   7.979 min)   9.3 %
                             ****ORCA TERMINATED NORMALLY****
TOTAL RUN TIME: 0 days 1 hours 26 minutes 3 seconds 186 msec
