
Lmod is automatically replacing "intel/2020.1.217" with "gcc/10.3.0".


Due to MODULEPATH changes, the following have been reloaded:
  1) blis/0.8.1     2) flexiblas/3.0.4

The following have been reloaded with a version change:
  1) gcccore/.9.3.0 => gcccore/.10.3.0        3) openmpi/4.0.3 => openmpi/4.1.1
  2) libfabric/1.10.1 => libfabric/1.12.1     4) ucx/1.8.0 => ucx/1.9.0

To execute ORCA, run: 
   ${EBROOTORCA}/orca orca.inp > orca.out

                                 *****************
                                 * O   R   C   A *
                                 *****************

                                            #,                                       
                                            ###                                      
                                            ####                                     
                                            #####                                    
                                            ######                                   
                                           ########,                                 
                                     ,,################,,,,,                         
                               ,,#################################,,                 
                          ,,##########################################,,             
                       ,#########################################, ''#####,          
                    ,#############################################,,   '####,        
                  ,##################################################,,,,####,       
                ,###########''''           ''''###############################       
              ,#####''   ,,,,##########,,,,          '''####'''          '####       
            ,##' ,,,,###########################,,,                        '##       
           ' ,,###''''                  '''############,,,                           
         ,,##''                                '''############,,,,        ,,,,,,###''
      ,#''                                            '''#######################'''  
     '                                                          ''''####''''         
             ,#######,   #######,   ,#######,      ##                                
            ,#'     '#,  ##    ##  ,#'     '#,    #''#        ######   ,####,        
            ##       ##  ##   ,#'  ##            #'  '#       #        #'  '#        
            ##       ##  #######   ##           ,######,      #####,   #    #        
            '#,     ,#'  ##    ##  '#,     ,#' ,#      #,         ##   #,  ,#        
             '#######'   ##     ##  '#######'  #'      '#     #####' # '####'        



                  #######################################################
                  #                        -***-                        #
                  #          Department of theory and spectroscopy      #
                  #    Directorship and core code : Frank Neese         #
                  #        Max Planck Institute fuer Kohlenforschung    #
                  #                Kaiser Wilhelm Platz 1               #
                  #                 D-45470 Muelheim/Ruhr               #
                  #                      Germany                        #
                  #                                                     #
                  #                  All rights reserved                #
                  #                        -***-                        #
                  #######################################################


                         Program Version 5.0.2 -  RELEASE  -


 With contributions from (in alphabetic order):
   Daniel Aravena         : Magnetic Suceptibility
   Michael Atanasov       : Ab Initio Ligand Field Theory (pilot matlab implementation)
   Alexander A. Auer      : GIAO ZORA, VPT2 properties, NMR spectrum
   Ute Becker             : Parallelization
   Giovanni Bistoni       : ED, misc. LED, open-shell LED, HFLD
   Martin Brehm           : Molecular dynamics
   Dmytro Bykov           : SCF Hessian
   Vijay G. Chilkuri      : MRCI spin determinant printing, contributions to CSF-ICE
   Dipayan Datta          : RHF DLPNO-CCSD density
   Achintya Kumar Dutta   : EOM-CC, STEOM-CC
   Dmitry Ganyushin       : Spin-Orbit,Spin-Spin,Magnetic field MRCI
   Miquel Garcia          : C-PCM and meta-GGA Hessian, CC/C-PCM, Gaussian charge scheme
   Yang Guo               : DLPNO-NEVPT2, F12-NEVPT2, CIM, IAO-localization
   Andreas Hansen         : Spin unrestricted coupled pair/coupled cluster methods
   Benjamin Helmich-Paris : MC-RPA, TRAH-SCF, COSX integrals
   Lee Huntington         : MR-EOM, pCC
   Robert Izsak           : Overlap fitted RIJCOSX, COSX-SCS-MP3, EOM
   Marcus Kettner         : VPT2
   Christian Kollmar      : KDIIS, OOCD, Brueckner-CCSD(T), CCSD density, CASPT2, CASPT2-K
   Simone Kossmann        : Meta GGA functionals, TD-DFT gradient, OOMP2, MP2 Hessian
   Martin Krupicka        : Initial AUTO-CI
   Lucas Lang             : DCDCAS
   Marvin Lechner         : AUTO-CI (C++ implementation), FIC-MRCC
   Dagmar Lenk            : GEPOL surface, SMD
   Dimitrios Liakos       : Extrapolation schemes; Compound Job, initial MDCI parallelization
   Dimitrios Manganas     : Further ROCIS development; embedding schemes
   Dimitrios Pantazis     : SARC Basis sets
   Anastasios Papadopoulos: AUTO-CI, single reference methods and gradients
   Taras Petrenko         : DFT Hessian,TD-DFT gradient, ASA, ECA, R-Raman, ABS, FL, XAS/XES, NRVS
   Peter Pinski           : DLPNO-MP2, DLPNO-MP2 Gradient
   Christoph Reimann      : Effective Core Potentials
   Marius Retegan         : Local ZFS, SOC
   Christoph Riplinger    : Optimizer, TS searches, QM/MM, DLPNO-CCSD(T), (RO)-DLPNO pert. Triples
   Tobias Risthaus        : Range-separated hybrids, TD-DFT gradient, RPA, STAB
   Michael Roemelt        : Original ROCIS implementation
   Masaaki Saitow         : Open-shell DLPNO-CCSD energy and density
   Barbara Sandhoefer     : DKH picture change effects
   Avijit Sen             : IP-ROCIS
   Kantharuban Sivalingam : CASSCF convergence, NEVPT2, FIC-MRCI
   Bernardo de Souza      : ESD, SOC TD-DFT
   Georgi Stoychev        : AutoAux, RI-MP2 NMR, DLPNO-MP2 response
   Willem Van den Heuvel  : Paramagnetic NMR
   Boris Wezisla          : Elementary symmetry handling
   Frank Wennmohs         : Technical directorship


 We gratefully acknowledge several colleagues who have allowed us to
 interface, adapt or use parts of their codes:
   Stefan Grimme, W. Hujo, H. Kruse, P. Pracht,  : VdW corrections, initial TS optimization,
                  C. Bannwarth, S. Ehlert          DFT functionals, gCP, sTDA/sTD-DF
   Ed Valeev, F. Pavosevic, A. Kumar             : LibInt (2-el integral package), F12 methods
   Garnet Chan, S. Sharma, J. Yang, R. Olivares  : DMRG
   Ulf Ekstrom                                   : XCFun DFT Library
   Mihaly Kallay                                 : mrcc  (arbitrary order and MRCC methods)
   Jiri Pittner, Ondrej Demel                    : Mk-CCSD
   Frank Weinhold                                : gennbo (NPA and NBO analysis)
   Christopher J. Cramer and Donald G. Truhlar   : smd solvation model
   Lars Goerigk                                  : TD-DFT with DH, B97 family of functionals
   V. Asgeirsson, H. Jonsson                     : NEB implementation
   FAccTs GmbH                                   : IRC, NEB, NEB-TS, DLPNO-Multilevel, CI-OPT
                                                   MM, QMMM, 2- and 3-layer-ONIOM, Crystal-QMMM,
                                                   LR-CPCM, SF, NACMEs, symmetry and pop. for TD-DFT,
                                                   nearIR, NL-DFT gradient (VV10), updates on ESD,
                                                   ML-optimized integration grids
   S Lehtola, MJT Oliveira, MAL Marques          : LibXC Library
   Liviu Ungur et al                             : ANISO software


 Your calculation uses the libint2 library for the computation of 2-el integrals
 For citations please refer to: http://libint.valeyev.net

 Your ORCA version has been built with support for libXC version: 5.1.0
 For citations please refer to: https://tddft.org/programs/libxc/

 This ORCA versions uses:
   CBLAS   interface :  Fast vector & matrix operations
   LAPACKE interface :  Fast linear algebra routines
   SCALAPACK package :  Parallel linear algebra routines
   Shared memory     :  Shared parallel matrices
   BLAS/LAPACK       :  OpenBLAS 0.3.15  USE64BITINT DYNAMIC_ARCH NO_AFFINITY Zen SINGLE_THREADED
        Core in use  :  Zen
   Copyright (c) 2011-2014, The OpenBLAS Project


Your calculation utilizes the atom-pairwise dispersion correction
with the Becke-Johnson damping scheme (D3BJ)
Cite in your paper:
S.Grimme, S.Ehrlich, L.Goerigk, J Comput Chem, (2011), 32, 1456–1465 
S.Grimme, J.Antony, S.Ehrlich and H.Krieg, J.Chem.Phys., 132, (2010), 154104 
   

================================================================================

----- Orbital basis set information -----
Your calculation utilizes the basis: def2-TZVPP
   F. Weigend and R. Ahlrichs, Phys. Chem. Chem. Phys. 7, 3297 (2005).

----- AuxJ basis set information -----
Your calculation utilizes the auxiliary basis: def2/J
   F. Weigend, Phys. Chem. Chem. Phys. 8, 1057 (2006).

================================================================================
                                        WARNINGS
                       Please study these warnings very carefully!
================================================================================


WARNING: Geometry Optimization
  ===> : Switching off AutoStart
         For restart on a previous wavefunction, please use MOREAD

INFO   : the flag for use of the SHARK integral package has been found!

================================================================================
                                       INPUT FILE
================================================================================
NAME = GGG-H_tt_001_OptFreq.inp
|  1> # GGG-H_tt_001 (old 007)
|  2> ! wB97X-D3BJ Opt Freq def2-TZVPP def2/J RIJCOSX VeryTightSCF
|  3> ! PAL8 defgrid3 VeryTightOpt
|  4> 
|  5> %maxcore 4096
|  6> 
|  7> %geom
|  8>   MaxIter 300
|  9>   # MaxStep 0.1
| 10>   Calc_Hess true
| 11>   Recalc_Hess 10
| 12> end
| 13> 
| 14> %chelpg
| 15>   grid 0.1
| 16>   rmax 3.0
| 17> end
| 18> 
| 19> * xyz 1 1 
| 20>  N   +0.555371   +1.960532   +2.334720
| 21>  H   +1.157595   +2.384244   +1.624142
| 22>  C   +1.193433   +1.572788   +3.603855
| 23>  C   +1.804108   +0.192837   +3.328528
| 24>  H   +1.981656   +2.292798   +3.856769
| 25>  H   +0.434447   +1.540014   +4.401099
| 26>  O   +2.986100   +0.035378   +3.025901
| 27>  C   -0.537189   +1.271841   +1.902306
| 28>  C   -0.736302   +1.224050   +0.382194
| 29>  O   -1.186863   +0.520038   +2.646243
| 30>  N   +0.000000   +0.000000   +0.000000
| 31>  H   -0.309692   +2.083662   -0.154530
| 32>  H   -1.797724   +1.101342   +0.130923
| 33>  H   -0.488561   -0.883423   +0.154855
| 34>  C   +1.355030   +0.000000   +0.000000
| 35>  C   +2.070208   -1.364060   +0.049087
| 36>  O   +2.047577   +1.023359   +0.000000
| 37>  H   +2.208116   -1.776494   -0.964074
| 38>  H   +1.546538   -2.096632   +0.680959
| 39>  O   +0.947246   -0.825389   +3.255480
| 40>  H   +0.003239   -0.476464   +3.336739
| 41>  N   +3.408980   -1.071287   +0.649958
| 42>  H   +4.099129   -1.819806   +0.499859
| 43>  H   +3.734263   -0.177740   +0.224610
| 44>  H   +3.314188   -0.841693   +1.702914
| 45> *
| 46> 
| 47>                          ****END OF INPUT****
================================================================================

                       *****************************
                       * Geometry Optimization Run *
                       *****************************

Geometry optimization settings:
Update method            Update   .... BFGS
Choice of coordinates    CoordSys .... Z-matrix Internals
Initial Hessian          InHess   .... Almoef's Model

Convergence Tolerances:
Energy Change            TolE     ....  2.0000e-07 Eh
Max. Gradient            TolMAXG  ....  3.0000e-05 Eh/bohr
RMS Gradient             TolRMSG  ....  8.0000e-06 Eh/bohr
Max. Displacement        TolMAXD  ....  2.0000e-04 bohr
RMS Displacement         TolRMSD  ....  1.0000e-04 bohr
Strict Convergence                ....  False
------------------------------------------------------------------------------
                        ORCA OPTIMIZATION COORDINATE SETUP
------------------------------------------------------------------------------

The optimization will be done in new redundant internal coordinates
Making redundant internal coordinates   ...  (new redundants) done
Evaluating the initial hessian          ...  (Is done on the fly) done
Evaluating the coordinates              ...  done
Calculating the B-matrix                .... done
Calculating the G-matrix                .... done
Diagonalizing the G-matrix              .... done
Small eigenvalue found = 5.221e-03
Small eigenvalue found = 1.478e-02
Small eigenvalue found = 2.012e-02
The first mode is                       ....   45
The number of degrees of freedom        ....   69

    -----------------------------------------------------------------
                    Redundant Internal Coordinates


    -----------------------------------------------------------------
         Definition                    Initial Value    d2E/dq (diagonal element)
    -----------------------------------------------------------------
      1. B(H   1,N   0)                  1.0233         0.000000   
      2. B(C   2,N   0)                  1.4725         0.000000   
      3. B(C   3,C   2)                  1.5339         0.000000   
      4. B(H   4,C   2)                  1.0971         0.000000   
      5. B(H   5,C   2)                  1.1012         0.000000   
      6. B(O   6,C   3)                  1.2302         0.000000   
      7. B(C   7,N   0)                  1.3620         0.000000   
      8. B(C   8,C   7)                  1.5338         0.000000   
      9. B(O   9,C   7)                  1.2413         0.000000   
     10. B(N  10,C   8)                  1.4787         0.000000   
     11. B(H  11,C   8)                  1.0995         0.000000   
     12. B(H  12,C   8)                  1.0976         0.000000   
     13. B(H  13,N  10)                  1.0213         0.000000   
     14. B(C  14,N  10)                  1.3550         0.000000   
     15. B(C  15,C  14)                  1.5410         0.000000   
     16. B(O  16,C  14)                  1.2357         0.000000   
     17. B(H  17,C  15)                  1.1025         0.000000   
     18. B(H  18,C  15)                  1.1001         0.000000   
     19. B(O  19,C   3)                  1.3328         0.000000   
     20. B(H  20,O  19)                  1.0097         0.000000   
     21. B(N  21,C  15)                  1.4964         0.000000   
     22. B(H  22,N  21)                  1.0291         0.000000   
     23. B(H  23,N  21)                  1.0417         0.000000   
     24. B(H  24,H  20)                  3.7101         0.000000   
     25. B(H  24,N  21)                  1.0819         0.000000   
     26. A(H   1,N   0,C   2)          116.9060         0.000000   
     27. A(C   2,N   0,C   7)          119.2161         0.000000   
     28. A(H   1,N   0,C   7)          117.4524         0.000000   
     29. A(C   3,C   2,H   5)          112.1818         0.000000   
     30. A(C   3,C   2,H   4)          110.2273         0.000000   
     31. A(N   0,C   2,H   4)          109.7063         0.000000   
     32. A(N   0,C   2,C   3)          104.7558         0.000000   
     33. A(N   0,C   2,H   5)          109.4608         0.000000   
     34. A(H   4,C   2,H   5)          110.3530         0.000000   
     35. A(O   6,C   3,O  19)          120.4264         0.000000   
     36. A(C   2,C   3,O  19)          116.1788         0.000000   
     37. A(C   2,C   3,O   6)          122.8055         0.000000   
     38. A(C   8,C   7,O   9)          120.4748         0.000000   
     39. A(N   0,C   7,O   9)          122.4013         0.000000   
     40. A(N   0,C   7,C   8)          115.7560         0.000000   
     41. A(C   7,C   8,H  11)          114.1444         0.000000   
     42. A(C   7,C   8,N  10)          102.5509         0.000000   
     43. A(H  11,C   8,H  12)          110.5388         0.000000   
     44. A(N  10,C   8,H  12)          109.2569         0.000000   
     45. A(C   7,C   8,H  12)          110.8476         0.000000   
     46. A(N  10,C   8,H  11)          109.1352         0.000000   
     47. A(H  13,N  10,C  14)          118.5783         0.000000   
     48. A(C   8,N  10,C  14)          119.8640         0.000000   
     49. A(C   8,N  10,H  13)          116.0170         0.000000   
     50. A(C  15,C  14,O  16)          118.2286         0.000000   
     51. A(N  10,C  14,O  16)          124.0877         0.000000   
     52. A(N  10,C  14,C  15)          117.6528         0.000000   
     53. A(H  17,C  15,H  18)          109.7709         0.000000   
     54. A(C  14,C  15,H  18)          112.7586         0.000000   
     55. A(C  14,C  15,H  17)          111.0947         0.000000   
     56. A(H  18,C  15,N  21)          108.9986         0.000000   
     57. A(H  17,C  15,N  21)          109.2859         0.000000   
     58. A(C  14,C  15,N  21)          104.7636         0.000000   
     59. A(C   3,O  19,H  20)          109.4301         0.000000   
     60. A(H  23,N  21,H  24)          104.0478         0.000000   
     61. A(H  22,N  21,H  24)          110.7976         0.000000   
     62. A(C  15,N  21,H  24)          110.7297         0.000000   
     63. A(H  22,N  21,H  23)          110.7888         0.000000   
     64. A(C  15,N  21,H  23)          106.4538         0.000000   
     65. A(C  15,N  21,H  22)          113.5229         0.000000   
     66. D(H   4,C   2,N   0,C   7)   -173.7474         0.000000   
     67. D(H   5,C   2,N   0,C   7)    -52.5234         0.000000   
     68. D(H   5,C   2,N   0,H   1)    156.2983         0.000000   
     69. D(H   4,C   2,N   0,H   1)     35.0743         0.000000   
     70. D(C   3,C   2,N   0,H   1)    -83.2277         0.000000   
     71. D(C   3,C   2,N   0,C   7)     67.9506         0.000000   
     72. D(O   6,C   3,C   2,H   4)    -20.8791         0.000000   
     73. D(O  19,C   3,C   2,H   5)     44.4993         0.000000   
     74. D(O  19,C   3,C   2,H   4)    167.9021         0.000000   
     75. D(O   6,C   3,C   2,H   5)   -144.2818         0.000000   
     76. D(O  19,C   3,C   2,N   0)    -74.1501         0.000000   
     77. D(O   6,C   3,C   2,N   0)     97.0687         0.000000   
     78. D(O   9,C   7,N   0,H   1)    166.3157         0.000000   
     79. D(C   8,C   7,N   0,C   2)   -151.3966         0.000000   
     80. D(C   8,C   7,N   0,H   1)     -0.3732         0.000000   
     81. D(O   9,C   7,N   0,C   2)     15.2923         0.000000   
     82. D(H  12,C   8,C   7,O   9)     39.9850         0.000000   
     83. D(H  12,C   8,C   7,N   0)   -153.0505         0.000000   
     84. D(H  11,C   8,C   7,O   9)    165.5842         0.000000   
     85. D(N  10,C   8,C   7,O   9)    -76.5234         0.000000   
     86. D(N  10,C   8,C   7,N   0)     90.4411         0.000000   
     87. D(H  11,C   8,C   7,N   0)    -27.4512         0.000000   
     88. D(C  14,N  10,C   8,H  12)    168.6868         0.000000   
     89. D(C  14,N  10,C   8,H  11)     47.7173         0.000000   
     90. D(C  14,N  10,C   8,C   7)    -73.6690         0.000000   
     91. D(H  13,N  10,C   8,H  12)    -37.9238         0.000000   
     92. D(H  13,N  10,C   8,H  11)   -158.8933         0.000000   
     93. D(H  13,N  10,C   8,C   7)     79.7204         0.000000   
     94. D(O  16,C  14,N  10,C   8)    -17.3403         0.000000   
     95. D(C  15,C  14,N  10,H  13)      7.8814         0.000000   
     96. D(C  15,C  14,N  10,C   8)    160.5987         0.000000   
     97. D(O  16,C  14,N  10,H  13)   -170.0576         0.000000   
     98. D(N  21,C  15,C  14,O  16)     23.0411         0.000000   
     99. D(N  21,C  15,C  14,N  10)   -155.0217         0.000000   
    100. D(H  18,C  15,C  14,O  16)    141.4421         0.000000   
    101. D(H  18,C  15,C  14,N  10)    -36.6207         0.000000   
    102. D(H  17,C  15,C  14,O  16)    -94.8474         0.000000   
    103. D(H  17,C  15,C  14,N  10)     87.0898         0.000000   
    104. D(H  20,O  19,C   3,O   6)   -167.4785         0.000000   
    105. D(H  20,O  19,C   3,C   2)      3.9637         0.000000   
    106. D(H  24,N  21,C  15,H  18)    -49.4705         0.000000   
    107. D(H  24,N  21,C  15,H  17)   -169.4370         0.000000   
    108. D(H  24,N  21,C  15,C  14)     71.4495         0.000000   
    109. D(H  23,N  21,C  15,H  18)   -161.9522         0.000000   
    110. D(H  23,N  21,C  15,H  17)     78.0812         0.000000   
    111. D(H  23,N  21,C  15,C  14)    -41.0323         0.000000   
    112. D(H  22,N  21,C  15,H  18)     75.8952         0.000000   
    113. D(H  22,N  21,C  15,H  17)    -44.0714         0.000000   
    114. D(H  22,N  21,C  15,C  14)   -163.1849         0.000000   
    -----------------------------------------------------------------

Number of atoms                         .... 25
Number of degrees of freedom            .... 114

         *************************************************************
         *                GEOMETRY OPTIMIZATION CYCLE   1            *
         *************************************************************
---------------------------------
CARTESIAN COORDINATES (ANGSTROEM)
---------------------------------
  N      0.555371    1.960532    2.334720
  H      1.157595    2.384244    1.624142
  C      1.193433    1.572788    3.603855
  C      1.804108    0.192837    3.328528
  H      1.981656    2.292798    3.856769
  H      0.434447    1.540014    4.401099
  O      2.986100    0.035378    3.025901
  C     -0.537189    1.271841    1.902306
  C     -0.736302    1.224050    0.382194
  O     -1.186863    0.520038    2.646243
  N      0.000000    0.000000    0.000000
  H     -0.309692    2.083662   -0.154530
  H     -1.797724    1.101342    0.130923
  H     -0.488561   -0.883423    0.154855
  C      1.355030    0.000000    0.000000
  C      2.070208   -1.364060    0.049087
  O      2.047577    1.023359    0.000000
  H      2.208116   -1.776494   -0.964074
  H      1.546538   -2.096632    0.680959
  O      0.947246   -0.825389    3.255480
  H      0.003239   -0.476464    3.336739
  N      3.408980   -1.071287    0.649958
  H      4.099129   -1.819806    0.499859
  H      3.734263   -0.177740    0.224610
  H      3.314188   -0.841693    1.702914

----------------------------
CARTESIAN COORDINATES (A.U.)
----------------------------
  NO LB      ZA    FRAG     MASS         X           Y           Z
   0 N     7.0000    0    14.007    1.049499    3.704869    4.411981
   1 H     1.0000    0     1.008    2.187538    4.505568    3.069184
   2 C     6.0000    0    12.011    2.255262    2.972139    6.810299
   3 C     6.0000    0    12.011    3.409270    0.364409    6.290006
   4 H     1.0000    0     1.008    3.744787    4.332760    7.288237
   5 H     1.0000    0     1.008    0.820986    2.910205    8.316872
   6 O     8.0000    0    15.999    5.642911    0.066855    5.718124
   7 C     6.0000    0    12.011   -1.015140    2.403431    3.594837
   8 C     6.0000    0    12.011   -1.391409    2.313119    0.722242
   9 O     8.0000    0    15.999   -2.242846    0.982729    5.000675
  10 N     7.0000    0    14.007    0.000000    0.000000    0.000000
  11 H     1.0000    0     1.008   -0.585233    3.937551   -0.292019
  12 H     1.0000    0     1.008   -3.397206    2.081235    0.247409
  13 H     1.0000    0     1.008   -0.923246   -1.669428    0.292634
  14 C     6.0000    0    12.011    2.560636    0.000000    0.000000
  15 C     6.0000    0    12.011    3.912126   -2.577700    0.092761
  16 O     8.0000    0    15.999    3.869360    1.933868    0.000000
  17 H     1.0000    0     1.008    4.172735   -3.357087   -1.821836
  18 H     1.0000    0     1.008    2.922533   -3.962060    1.286826
  19 O     8.0000    0    15.999    1.790036   -1.559759    6.151966
  20 H     1.0000    0     1.008    0.006121   -0.900386    6.305523
  21 N     7.0000    0    14.007    6.442039   -2.024439    1.228243
  22 H     1.0000    0     1.008    7.746231   -3.438935    0.944597
  23 H     1.0000    0     1.008    7.056734   -0.335880    0.424451
  24 H     1.0000    0     1.008    6.262908   -1.590569    3.218041

--------------------------------
INTERNAL COORDINATES (ANGSTROEM)
--------------------------------
 N      0   0   0     0.000000000000     0.00000000     0.00000000
 H      1   0   0     1.023292088899     0.00000000     0.00000000
 C      1   2   0     1.472471450862   116.90599647     0.00000000
 C      3   1   2     1.533947090012   104.75580731   276.77232318
 H      3   1   2     1.097121410430   109.70628989    35.07427415
 H      3   1   2     1.101241062987   109.46082918   156.29831584
 O      4   3   1     1.230236369920   122.80552693    97.06873739
 C      1   2   3     1.361970819980   117.45238191   208.30396492
 C      8   1   2     1.533841732055   115.75599840   359.62684124
 O      8   1   2     1.241259971583   122.40127403   166.31572606
 N      9   8   1     1.478685663466   102.55094854    90.44113744
 H      9   8   1     1.099546058526   114.14443907   332.54876436
 H      9   8   1     1.097638843513   110.84761417   206.94950726
 H     11   9   8     1.021326646414   116.01703270    79.72041891
 C     11   9   8     1.355030000000   119.86403988   286.33101859
 C     15  11   9     1.540957101562   117.65282265   160.59873780
 O     15  11   9     1.235671878004   124.08774675   342.65969174
 H     16  15  11     1.102549605569   111.09466791    87.08979805
 H     16  15  11     1.100070101615   112.75858845   323.37928359
 O      4   3   1     1.332791313156   116.17880824   285.84987236
 H     20   4   3     1.009703370676   109.43007640     3.96370591
 N     16  15  11     1.496353051975   104.76362109   204.97829078
 H     22  16  15     1.029133638243   113.52285707   196.81510926
 H     22  16  15     1.041708304854   106.45378032   318.96769020
 H     22  16  15     1.081857322403   110.72971819    71.44945989

---------------------------
INTERNAL COORDINATES (A.U.)
---------------------------
 N      0   0   0     0.000000000000     0.00000000     0.00000000
 H      1   0   0     1.933741803028     0.00000000     0.00000000
 C      1   2   0     2.782567782148   116.90599647     0.00000000
 C      3   1   2     2.898739904047   104.75580731   276.77232318
 H      3   1   2     2.073259001375   109.70628989    35.07427415
 H      3   1   2     2.081044016473   109.46082918   156.29831584
 O      4   3   1     2.324809819138   122.80552693    97.06873739
 C      1   2   3     2.573751852154   117.45238191   208.30396492
 C      8   1   2     2.898540806364   115.75599840   359.62684124
 O      8   1   2     2.345641407291   122.40127403   166.31572606
 N      9   8   1     2.794310942106   102.55094854    90.44113744
 H      9   8   1     2.077840922247   114.14443907   332.54876436
 H      9   8   1     2.074236808194   110.84761417   206.94950726
 H     11   9   8     1.930027654998   116.01703270    79.72041891
 C     11   9   8     2.560635603247   119.86403988   286.33101859
 C     15  11   9     2.911986906072   117.65282265   160.59873780
 O     15  11   9     2.335081440816   124.08774675   342.65969174
 H     16  15  11     2.083516803589   111.09466791    87.08979805
 H     16  15  11     2.078831220168   112.75858845   323.37928359
 O      4   3   1     2.518610575534   116.17880824   285.84987236
 H     20   4   3     1.908062847075   109.43007640     3.96370591
 N     16  15  11     2.827697467889   104.76362109   204.97829078
 H     22  16  15     1.944780731485   113.52285707   196.81510926
 H     22  16  15     1.968543407606   106.45378032   318.96769020
 H     22  16  15     2.044414055318   110.72971819    71.44945989

---------------------
BASIS SET INFORMATION
---------------------
There are 4 groups of distinct atoms

 Group   1 Type N   : 11s6p2d1f contracted to 5s3p2d1f pattern {62111/411/11/1}
 Group   2 Type H   : 5s2p1d contracted to 3s2p1d pattern {311/11/1}
 Group   3 Type C   : 11s6p2d1f contracted to 5s3p2d1f pattern {62111/411/11/1}
 Group   4 Type O   : 11s6p2d1f contracted to 5s3p2d1f pattern {62111/411/11/1}

Atom   0N    basis set group =>   1
Atom   1H    basis set group =>   2
Atom   2C    basis set group =>   3
Atom   3C    basis set group =>   3
Atom   4H    basis set group =>   2
Atom   5H    basis set group =>   2
Atom   6O    basis set group =>   4
Atom   7C    basis set group =>   3
Atom   8C    basis set group =>   3
Atom   9O    basis set group =>   4
Atom  10N    basis set group =>   1
Atom  11H    basis set group =>   2
Atom  12H    basis set group =>   2
Atom  13H    basis set group =>   2
Atom  14C    basis set group =>   3
Atom  15C    basis set group =>   3
Atom  16O    basis set group =>   4
Atom  17H    basis set group =>   2
Atom  18H    basis set group =>   2
Atom  19O    basis set group =>   4
Atom  20H    basis set group =>   2
Atom  21N    basis set group =>   1
Atom  22H    basis set group =>   2
Atom  23H    basis set group =>   2
Atom  24H    basis set group =>   2
---------------------------------
AUXILIARY/J BASIS SET INFORMATION
---------------------------------
There are 4 groups of distinct atoms

 Group   1 Type N   : 12s5p4d2f1g contracted to 6s4p3d1f1g pattern {711111/2111/211/2/1}
 Group   2 Type H   : 5s2p1d contracted to 3s1p1d pattern {311/2/1}
 Group   3 Type C   : 12s5p4d2f1g contracted to 6s4p3d1f1g pattern {711111/2111/211/2/1}
 Group   4 Type O   : 12s5p4d2f1g contracted to 6s4p3d1f1g pattern {711111/2111/211/2/1}

Atom   0N    basis set group =>   1
Atom   1H    basis set group =>   2
Atom   2C    basis set group =>   3
Atom   3C    basis set group =>   3
Atom   4H    basis set group =>   2
Atom   5H    basis set group =>   2
Atom   6O    basis set group =>   4
Atom   7C    basis set group =>   3
Atom   8C    basis set group =>   3
Atom   9O    basis set group =>   4
Atom  10N    basis set group =>   1
Atom  11H    basis set group =>   2
Atom  12H    basis set group =>   2
Atom  13H    basis set group =>   2
Atom  14C    basis set group =>   3
Atom  15C    basis set group =>   3
Atom  16O    basis set group =>   4
Atom  17H    basis set group =>   2
Atom  18H    basis set group =>   2
Atom  19O    basis set group =>   4
Atom  20H    basis set group =>   2
Atom  21N    basis set group =>   1
Atom  22H    basis set group =>   2
Atom  23H    basis set group =>   2
Atom  24H    basis set group =>   2


           ************************************************************
           *        Program running with 8 parallel MPI-processes     *
           *              working on a common directory               *
           ************************************************************
------------------------------------------------------------------------------
                           ORCA GTO INTEGRAL CALCULATION
                           -- RI-GTO INTEGRALS CHOSEN --
------------------------------------------------------------------------------
------------------------------------------------------------------------------
                   ___                                                        
                  /   \      - P O W E R E D   B Y -                         
                 /     \                                                     
                 |  |  |   _    _      __       _____    __    __             
                 |  |  |  | |  | |    /  \     |  _  \  |  |  /  |          
                  \  \/   | |  | |   /    \    | | | |  |  | /  /          
                 / \  \   | |__| |  /  /\  \   | |_| |  |  |/  /          
                |  |  |   |  __  | /  /__\  \  |    /   |      \           
                |  |  |   | |  | | |   __   |  |    \   |  |\   \          
                \     /   | |  | | |  |  |  |  | |\  \  |  | \   \       
                 \___/    |_|  |_| |__|  |__|  |_| \__\ |__|  \__/        
                                                                              
                      - O R C A' S   B I G   F R I E N D -                    
                                      &                                       
                       - I N T E G R A L  F E E D E R -                       
                                                                              
 v1 FN, 2020, v2 2021                                                         
------------------------------------------------------------------------------


Reading SHARK input file GGG-H_tt_001_OptFreq.SHARKINP.tmp ... ok
----------------------
SHARK INTEGRAL PACKAGE
----------------------

Number of atoms                             ...     25
Number of basis functions                   ...    571
Number of shells                            ...    215
Maximum angular momentum                    ...      3
Integral batch strategy                     ... SHARK/LIBINT Hybrid
RI-J (if used) integral strategy            ... SPLIT-RIJ (Revised 2003 algorithm where possible)
Printlevel                                  ...      1
Contraction scheme used                     ... SEGMENTED contraction
Coulomb Range Separation                    ... NOT USED
Exchange Range Separation                   ... Long Range
   Mu parameter                             ...  0.300000
   Scaling (regular/separated)              ...  0.167000  0.833000
Finite Nucleus Model                        ... NOT USED
Auxiliary Coulomb fitting basis             ... AVAILABLE
   # of basis functions in Aux-J            ...    769
   # of shells in Aux-J                     ...    255
   Maximum angular momentum in Aux-J        ...      4
Auxiliary J/K fitting basis                 ... NOT available
Auxiliary Correlation fitting basis         ... NOT available
Auxiliary 'external' fitting basis          ... NOT available
Integral threshold                          ...     1.000000e-12
Primitive cut-off                           ...     1.000000e-14
Primitive pair pre-selection threshold      ...     1.000000e-14

Calculating pre-screening integrals         ... done (  0.0 sec) Dimension = 215
Organizing shell pair data                  ... done (  0.2 sec)
Shell pair information
Total number of shell pairs                 ...     23220
Shell pairs after pre-screening             ...     20619
Total number of primitive shell pairs       ...     63868
Primitive shell pairs kept                  ...     41890
          la=0 lb=0:   4454 shell pairs
          la=1 lb=0:   5751 shell pairs
          la=1 lb=1:   1890 shell pairs
          la=2 lb=0:   3267 shell pairs
          la=2 lb=1:   2174 shell pairs
          la=2 lb=2:    634 shell pairs
          la=3 lb=0:   1153 shell pairs
          la=3 lb=1:    761 shell pairs
          la=3 lb=2:    447 shell pairs
          la=3 lb=3:     88 shell pairs

Calculating one electron integrals          ... done (  0.0 sec)
Calculating RI/J V-Matrix + Cholesky decomp.... done (  0.6 sec)
Calculating Nuclear repulsion               ... done (  0.0 sec) ENN=    923.373384010609 Eh

SHARK setup successfully completed in   1.9 seconds

Maximum memory used throughout the entire GTOINT-calculation: 32.4 MB


           ************************************************************
           *        Program running with 8 parallel MPI-processes     *
           *              working on a common directory               *
           ************************************************************
-------------------------------------------------------------------------------
                                 ORCA SCF
-------------------------------------------------------------------------------

------------
SCF SETTINGS
------------
Hamiltonian:
 Density Functional     Method          .... DFT(GTOs)
 Exchange Functional    Exchange        .... WB97X-V
 Correlation Functional Correlation     .... WB97X-V
 Gradients option       PostSCFGGA      .... off
 Hybrid DFT is turned on
   Fraction HF Exchange ScalHFX         ....  0.167000
   Scaling of DF-GGA-X  ScalDFX         ....  0.000000
   Scaling of DF-GGA-C  ScalDFC         ....  1.000000
   Scaling of DF-LDA-C  ScalLDAC        ....  1.000000
   Perturbative correction              ....  0.000000
   Density functional embedding theory  .... OFF
 Long-range corrected/Screened/Range-Separated Hybrid DFT is turned on
   Amount of maximum screened exact exchange              ....  0.833000
   Range separation parameter mu (erf(mu*r12)/r12)        ....  0.300000
 RI-approximation to the Coulomb term is turned on
   Number of AuxJ basis functions       .... 769
   RIJ-COSX (HFX calculated with COS-X)).... on


General Settings:
 Integral files         IntName         .... GGG-H_tt_001_OptFreq
 Hartree-Fock type      HFTyp           .... RHF
 Total Charge           Charge          ....    1
 Multiplicity           Mult            ....    1
 Number of Electrons    NEL             ....  100
 Basis Dimension        Dim             ....  571
 Nuclear Repulsion      ENuc            ....    923.3733840106 Eh

Convergence Acceleration:
 DIIS                   CNVDIIS         .... on
   Start iteration      DIISMaxIt       ....    12
   Startup error        DIISStart       ....  0.200000
   # of expansion vecs  DIISMaxEq       ....     5
   Bias factor          DIISBfac        ....   1.050
   Max. coefficient     DIISMaxC        ....  10.000
 Trust-Rad. Augm. Hess. CNVTRAH         .... auto
   Auto Start mean grad. ratio tolernc. ....  1.125000
   Auto Start start iteration           ....    20
   Auto Start num. interpolation iter.  ....    10
   Max. Number of Micro iterations      ....    16
   Max. Number of Macro iterations      .... Maxiter - #DIIS iter
   Number of Davidson start vectors     ....     2
   Converg. threshold I  (grad. norm)   ....   2.000e-06
   Converg. threshold II (energy diff.) ....   1.000e-09
   Grad. Scal. Fac. for Micro threshold ....   0.100
   Minimum threshold for Micro iter.    ....   0.010
   NR start threshold (gradient norm)   ....   0.001
   Initial trust radius                 ....   0.400
   Minimum AH scaling param. (alpha)    ....   1.000
   Maximum AH scaling param. (alpha)    .... 1000.000
   Orbital update algorithm             .... Taylor
   White noise on init. David. guess    .... on
   Maximum white noise                  ....   0.010
   Quad. conv. algorithm                .... NR
 SOSCF                  CNVSOSCF        .... on
   Start iteration      SOSCFMaxIt      ....   150
   Startup grad/error   SOSCFStart      ....  0.003300
 Level Shifting         CNVShift        .... on
   Level shift para.    LevelShift      ....    0.2500
   Turn off err/grad.   ShiftErr        ....    0.0010
 Zerner damping         CNVZerner       .... off
 Static damping         CNVDamp         .... on
   Fraction old density DampFac         ....    0.7000
   Max. Damping (<1)    DampMax         ....    0.9800
   Min. Damping (>=0)   DampMin         ....    0.0000
   Turn off err/grad.   DampErr         ....    0.1000
 Fernandez-Rico         CNVRico         .... off

SCF Procedure:
 Maximum # iterations   MaxIter         ....   125
 SCF integral mode      SCFMode         .... Direct
   Integral package                     .... SHARK and LIBINT hybrid scheme
 Reset frequency        DirectResetFreq ....    20
 Integral Threshold     Thresh          ....  1.000e-12 Eh
 Primitive CutOff       TCut            ....  1.000e-14 Eh

Convergence Tolerance:
 Convergence Check Mode ConvCheckMode   .... Total+1el-Energy
 Convergence forced     ConvForced      .... 0
 Energy Change          TolE            ....  1.000e-09 Eh
 1-El. energy change                    ....  1.000e-06 Eh
 Orbital Gradient       TolG            ....  2.000e-06
 Orbital Rotation angle TolX            ....  2.000e-06
 DIIS Error             TolErr          ....  1.000e-08


Diagonalization of the overlap matrix:
Smallest eigenvalue                        ... 9.951e-05
Time for diagonalization                   ...    0.052 sec
Threshold for overlap eigenvalues          ... 1.000e-08
Number of eigenvalues below threshold      ... 0
Time for construction of square roots      ...    0.158 sec
Total time needed                          ...    0.212 sec

Time for model grid setup =    0.275 sec

------------------------------
INITIAL GUESS: MODEL POTENTIAL
------------------------------
Loading Hartree-Fock densities                     ... done
Calculating cut-offs                               ... done
Initializing the effective Hamiltonian             ... done
Setting up the integral package (SHARK)            ... done
Starting the Coulomb interaction                   ... done (   0.3 sec)
Reading the grid                                   ... done
Mapping shells                                     ... done
Starting the XC term evaluation                    ... done (   0.2 sec)
  promolecular density results
     # of electrons  =    100.990815553
     EX              =    -58.972799922
     EC              =     -4.278012394
     EX+EC           =    -63.250812316
Transforming the Hamiltonian                       ... done (   0.0 sec)
Diagonalizing the Hamiltonian                      ... done (   0.0 sec)
Back transforming the eigenvectors                 ... done (   0.0 sec)
Now organizing SCF variables                       ... done
                      ------------------
                      INITIAL GUESS DONE (   0.8 sec)
                      ------------------
-------------------
DFT GRID GENERATION
-------------------

General Integration Accuracy     IntAcc      ... 4.959
Radial Grid Type                 RadialGrid  ... OptM3 with GC (2021)
Angular Grid (max. ang.)         AngularGrid ... 6 (Lebedev-590)
Angular grid pruning method      GridPruning ... 4 (adaptive)
Weight generation scheme         WeightScheme... Becke
Basis function cutoff            BFCut       ... 1.0000e-12
Integration weight cutoff        WCut        ... 1.0000e-14
Angular grids for H and He will be reduced by one unit
Partially contracted basis set               ... off
Rotationally invariant grid construction     ... off

Total number of grid points                  ...   287589
Total number of batches                      ...     4506
Average number of points per batch           ...       63
Average number of grid points per atom       ...    11504
Time for grid setup =    3.255 sec

--------------------
COSX GRID GENERATION
--------------------

GRIDX 1
-------
General Integration Accuracy     IntAcc      ... 4.020
Radial Grid Type                 RadialGrid  ... OptM3 with GC (2021)
Angular Grid (max. ang.)         AngularGrid ... 2 (Lebedev-110)
Angular grid pruning method      GridPruning ... 4 (adaptive)
Weight generation scheme         WeightScheme... Becke
Basis function cutoff            BFCut       ... 1.0000e-12
Integration weight cutoff        WCut        ... 1.0000e-14
Angular grids for H and He will be reduced by one unit
Partially contracted basis set               ... on
Rotationally invariant grid construction     ... off

Total number of grid points                  ...    31928
Total number of batches                      ...      513
Average number of points per batch           ...       62
Average number of grid points per atom       ...     1277
UseSFitting                                  ... on

GRIDX 2
-------
General Integration Accuracy     IntAcc      ... 4.338
Radial Grid Type                 RadialGrid  ... OptM3 with GC (2021)
Angular Grid (max. ang.)         AngularGrid ... 3 (Lebedev-194)
Angular grid pruning method      GridPruning ... 4 (adaptive)
Weight generation scheme         WeightScheme... Becke
Basis function cutoff            BFCut       ... 1.0000e-12
Integration weight cutoff        WCut        ... 1.0000e-14
Angular grids for H and He will be reduced by one unit
Partially contracted basis set               ... on
Rotationally invariant grid construction     ... off

Total number of grid points                  ...    69880
Total number of batches                      ...     1105
Average number of points per batch           ...       63
Average number of grid points per atom       ...     2795
UseSFitting                                  ... on

GRIDX 3
-------
General Integration Accuracy     IntAcc      ... 4.871
Radial Grid Type                 RadialGrid  ... OptM3 with GC (2021)
Angular Grid (max. ang.)         AngularGrid ... 4 (Lebedev-302)
Angular grid pruning method      GridPruning ... 4 (adaptive)
Weight generation scheme         WeightScheme... Becke
Basis function cutoff            BFCut       ... 1.0000e-12
Integration weight cutoff        WCut        ... 1.0000e-14
Angular grids for H and He will be reduced by one unit
Partially contracted basis set               ... on
Rotationally invariant grid construction     ... off

Total number of grid points                  ...   132137
Total number of batches                      ...     2078
Average number of points per batch           ...       63
Average number of grid points per atom       ...     5285
UseSFitting                                  ... on

Time for X-Grid setup             =    4.618 sec

--------------
SCF ITERATIONS
--------------
ITER       Energy         Delta-E        Max-DP      RMS-DP      [F,P]     Damp
               ***  Starting incremental Fock matrix formation  ***
  0   -701.1605106004   0.000000000000 0.03475952  0.00052074  0.3419813 0.7000
                      *** Initiating the SOSCF procedure ***
                      *** Re-Reading the Fockian *** 
                      *** Removing any level shift *** 
ITER      Energy       Delta-E        Grad      Rot      Max-DP    RMS-DP
  1   -701.20911039  -0.0485997869  0.003231  0.003231  0.096713  0.001557
               *** Restarting incremental Fock matrix formation ***
  2   -701.28181122  -0.0727008353  0.012238  0.019696  0.039273  0.000536
  3   -701.28065200   0.0011592202  0.017595  0.014846  0.019169  0.000247
  4   -701.29805984  -0.0174078392  0.001499  0.002354  0.008673  0.000113
  5   -701.29818004  -0.0001202013  0.001777  0.002022  0.003004  0.000039
  6   -701.29856750  -0.0003874559  0.000323  0.000804  0.000594  0.000011
  7   -701.29857212  -0.0000046176  0.000189  0.000508  0.000398  0.000006
  8   -701.29857527  -0.0000031503  0.000066  0.000221  0.000125  0.000002
  9   -701.29857533  -0.0000000620  0.000046  0.000042  0.000061  0.000001
 10   -701.29857544  -0.0000001074  0.000007  0.000013  0.000020  0.000000
 11   -701.29857544  -0.0000000034  0.000004  0.000006  0.000007  0.000000
 12   -701.29857544  -0.0000000021  0.000001  0.000003  0.000003  0.000000
                  ***Gradient check signals convergence***
              ***Rediagonalizing the Fockian in SOSCF/NRSCF***

               *****************************************************
               *                     SUCCESS                       *
               *           SCF CONVERGED AFTER  13 CYCLES          *
               *****************************************************

Old exchange energy                            =    -27.830276825 Eh
New exchange energy                            =    -27.830274787 Eh
Exchange energy change after final integration =      0.000002038 Eh
Total energy after final integration           =   -701.298573404 Eh
Final COS-X integration done in                =    33.863 sec

----------------
TOTAL SCF ENERGY
----------------

Total Energy       :         -701.29857340 Eh          -19083.30436 eV

Components:
Nuclear Repulsion  :          923.37338401 Eh           25126.26717 eV
Electronic Energy  :        -1624.67195741 Eh          -44209.57153 eV
One Electron Energy:        -2774.08175475 Eh          -75486.60221 eV
Two Electron Energy:         1149.40979734 Eh           31277.03068 eV
Max COSX asymmetry :            0.00000077 Eh               0.00002 eV

Virial components:
Potential Energy   :        -1399.26109087 Eh          -38075.83002 eV
Kinetic Energy     :          697.96251746 Eh           18992.52566 eV
Virial Ratio       :            2.00477971


DFT components:
N(Alpha)           :       49.999997868365 electrons
N(Beta)            :       49.999997868365 electrons
N(Total)           :       99.999995736731 electrons
E(X)               :      -60.047471740078 Eh       
E(C)               :       -4.272508676585 Eh       
E(XC)              :      -64.319980416663 Eh       
DFET-embed. en.    :        0.000000000000 Eh       

---------------
SCF CONVERGENCE
---------------

  Last Energy change         ...    6.2414e-11  Tolerance :   1.0000e-09
  Last MAX-Density change    ...    1.9984e-15  Tolerance :   1.0000e-08
  Last RMS-Density change    ...    1.3882e-17  Tolerance :   1.0000e-09
  Last Orbital Gradient      ...    4.7923e-07  Tolerance :   2.0000e-06
  Last Orbital Rotation      ...    1.2722e-06  Tolerance :   2.0000e-06

             **** THE GBW FILE WAS UPDATED (GGG-H_tt_001_OptFreq.gbw) ****
             **** DENSITY GGG-H_tt_001_OptFreq.scfp WAS UPDATED ****
             **** ENERGY FILE WAS UPDATED (GGG-H_tt_001_OptFreq.en.tmp) ****
             **** THE GBW FILE WAS UPDATED (GGG-H_tt_001_OptFreq.gbw) ****
             **** DENSITY GGG-H_tt_001_OptFreq.scfp WAS UPDATED ****
----------------
ORBITAL ENERGIES
----------------

  NO   OCC          E(Eh)            E(eV) 
   0   2.0000     -19.407253      -528.0982 
   1   2.0000     -19.366329      -526.9846 
   2   2.0000     -19.365942      -526.9741 
   3   2.0000     -19.345704      -526.4234 
   4   2.0000     -14.686362      -399.6362 
   5   2.0000     -14.619657      -397.8211 
   6   2.0000     -14.602747      -397.3610 
   7   2.0000     -10.571939      -287.6771 
   8   2.0000     -10.565547      -287.5031 
   9   2.0000     -10.542831      -286.8850 
  10   2.0000     -10.518794      -286.2309 
  11   2.0000     -10.480550      -285.1903 
  12   2.0000     -10.476955      -285.0924 
  13   2.0000      -1.393343       -37.9148 
  14   2.0000      -1.359569       -36.9958 
  15   2.0000      -1.334422       -36.3115 
  16   2.0000      -1.303856       -35.4797 
  17   2.0000      -1.283196       -34.9175 
  18   2.0000      -1.234145       -33.5828 
  19   2.0000      -1.217939       -33.1418 
  20   2.0000      -1.066759       -29.0280 
  21   2.0000      -1.029854       -28.0238 
  22   2.0000      -0.991007       -26.9667 
  23   2.0000      -0.895666       -24.3723 
  24   2.0000      -0.882151       -24.0045 
  25   2.0000      -0.876782       -23.8585 
  26   2.0000      -0.858501       -23.3610 
  27   2.0000      -0.855665       -23.2838 
  28   2.0000      -0.816779       -22.2257 
  29   2.0000      -0.812401       -22.1066 
  30   2.0000      -0.786304       -21.3964 
  31   2.0000      -0.773537       -21.0490 
  32   2.0000      -0.766005       -20.8440 
  33   2.0000      -0.747335       -20.3360 
  34   2.0000      -0.732145       -19.9227 
  35   2.0000      -0.726464       -19.7681 
  36   2.0000      -0.707943       -19.2641 
  37   2.0000      -0.691408       -18.8142 
  38   2.0000      -0.687378       -18.7045 
  39   2.0000      -0.667957       -18.1760 
  40   2.0000      -0.661004       -17.9868 
  41   2.0000      -0.659150       -17.9364 
  42   2.0000      -0.651124       -17.7180 
  43   2.0000      -0.640745       -17.4356 
  44   2.0000      -0.584724       -15.9112 
  45   2.0000      -0.564747       -15.3676 
  46   2.0000      -0.560595       -15.2546 
  47   2.0000      -0.554894       -15.0994 
  48   2.0000      -0.529052       -14.3962 
  49   2.0000      -0.512403       -13.9432 
  50   0.0000      -0.094588        -2.5739 
  51   0.0000      -0.080119        -2.1801 
  52   0.0000      -0.058920        -1.6033 
  53   0.0000      -0.055564        -1.5120 
  54   0.0000      -0.034423        -0.9367 
  55   0.0000      -0.006825        -0.1857 
  56   0.0000       0.009350         0.2544 
  57   0.0000       0.011679         0.3178 
  58   0.0000       0.013696         0.3727 
  59   0.0000       0.025826         0.7028 
  60   0.0000       0.034455         0.9376 
  61   0.0000       0.054025         1.4701 
  62   0.0000       0.065859         1.7921 
  63   0.0000       0.069506         1.8914 
  64   0.0000       0.073756         2.0070 
  65   0.0000       0.079979         2.1763 
  66   0.0000       0.083810         2.2806 
  67   0.0000       0.089671         2.4401 
  68   0.0000       0.095169         2.5897 
  69   0.0000       0.109010         2.9663 
  70   0.0000       0.114122         3.1054 
  71   0.0000       0.127756         3.4764 
  72   0.0000       0.138711         3.7745 
  73   0.0000       0.146206         3.9785 
  74   0.0000       0.155394         4.2285 
  75   0.0000       0.171099         4.6559 
  76   0.0000       0.174753         4.7553 
  77   0.0000       0.188787         5.1372 
  78   0.0000       0.199448         5.4273 
  79   0.0000       0.209273         5.6946 
  80   0.0000       0.216762         5.8984 
  81   0.0000       0.223848         6.0912 
  82   0.0000       0.224793         6.1169 
  83   0.0000       0.244498         6.6531 
  84   0.0000       0.248961         6.7746 
  85   0.0000       0.255781         6.9602 
  86   0.0000       0.272069         7.4034 
  87   0.0000       0.275766         7.5040 
  88   0.0000       0.287093         7.8122 
  89   0.0000       0.291443         7.9306 
  90   0.0000       0.303188         8.2502 
  91   0.0000       0.310609         8.4521 
  92   0.0000       0.318076         8.6553 
  93   0.0000       0.319804         8.7023 
  94   0.0000       0.330514         8.9937 
  95   0.0000       0.332858         9.0575 
  96   0.0000       0.338261         9.2045 
  97   0.0000       0.343394         9.3442 
  98   0.0000       0.347736         9.4624 
  99   0.0000       0.350146         9.5279 
 100   0.0000       0.358315         9.7503 
 101   0.0000       0.372128        10.1261 
 102   0.0000       0.374086        10.1794 
 103   0.0000       0.379181        10.3180 
 104   0.0000       0.384162        10.4536 
 105   0.0000       0.397291        10.8108 
 106   0.0000       0.405025        11.0213 
 107   0.0000       0.407469        11.0878 
 108   0.0000       0.419356        11.4112 
 109   0.0000       0.422849        11.5063 
 110   0.0000       0.432591        11.7714 
 111   0.0000       0.440344        11.9824 
 112   0.0000       0.443757        12.0752 
 113   0.0000       0.452762        12.3203 
 114   0.0000       0.458895        12.4872 
 115   0.0000       0.478549        13.0220 
 116   0.0000       0.482488        13.1292 
 117   0.0000       0.497632        13.5413 
 118   0.0000       0.502986        13.6869 
 119   0.0000       0.517716        14.0878 
 120   0.0000       0.526531        14.3276 
 121   0.0000       0.546306        14.8657 
 122   0.0000       0.559214        15.2170 
 123   0.0000       0.575540        15.6612 
 124   0.0000       0.580109        15.7856 
 125   0.0000       0.589735        16.0475 
 126   0.0000       0.594300        16.1717 
 127   0.0000       0.608757        16.5651 
 128   0.0000       0.616429        16.7739 
 129   0.0000       0.624294        16.9879 
 130   0.0000       0.633674        17.2431 
 131   0.0000       0.649439        17.6721 
 132   0.0000       0.657724        17.8976 
 133   0.0000       0.671000        18.2588 
 134   0.0000       0.688353        18.7310 
 135   0.0000       0.705396        19.1948 
 136   0.0000       0.709334        19.3019 
 137   0.0000       0.724436        19.7129 
 138   0.0000       0.741153        20.1678 
 139   0.0000       0.752260        20.4700 
 140   0.0000       0.760151        20.6848 
 141   0.0000       0.765448        20.8289 
 142   0.0000       0.782766        21.3002 
 143   0.0000       0.788318        21.4512 
 144   0.0000       0.796021        21.6608 
 145   0.0000       0.818960        22.2850 
 146   0.0000       0.822074        22.3698 
 147   0.0000       0.834701        22.7134 
 148   0.0000       0.839229        22.8366 
 149   0.0000       0.839619        22.8472 
 150   0.0000       0.857263        23.3273 
 151   0.0000       0.864895        23.5350 
 152   0.0000       0.881860        23.9966 
 153   0.0000       0.892118        24.2758 
 154   0.0000       0.897976        24.4352 
 155   0.0000       0.906723        24.6732 
 156   0.0000       0.921822        25.0841 
 157   0.0000       0.933539        25.4029 
 158   0.0000       0.944595        25.7037 
 159   0.0000       0.948928        25.8217 
 160   0.0000       0.961652        26.1679 
 161   0.0000       0.964708        26.2510 
 162   0.0000       0.986184        26.8354 
 163   0.0000       0.995430        27.0870 
 164   0.0000       1.005958        27.3735 
 165   0.0000       1.012727        27.5577 
 166   0.0000       1.026626        27.9359 
 167   0.0000       1.030323        28.0365 
 168   0.0000       1.040510        28.3137 
 169   0.0000       1.054781        28.7021 
 170   0.0000       1.061576        28.8870 
 171   0.0000       1.071190        29.1486 
 172   0.0000       1.083332        29.4790 
 173   0.0000       1.095827        29.8190 
 174   0.0000       1.104313        30.0499 
 175   0.0000       1.107850        30.1461 
 176   0.0000       1.128547        30.7093 
 177   0.0000       1.143463        31.1152 
 178   0.0000       1.149700        31.2849 
 179   0.0000       1.164200        31.6795 
 180   0.0000       1.166629        31.7456 
 181   0.0000       1.168693        31.8018 
 182   0.0000       1.185848        32.2686 
 183   0.0000       1.191368        32.4188 
 184   0.0000       1.210218        32.9317 
 185   0.0000       1.221768        33.2460 
 186   0.0000       1.225940        33.3595 
 187   0.0000       1.243743        33.8440 
 188   0.0000       1.251970        34.0678 
 189   0.0000       1.260494        34.2998 
 190   0.0000       1.276067        34.7236 
 191   0.0000       1.290158        35.1070 
 192   0.0000       1.298970        35.3468 
 193   0.0000       1.324418        36.0392 
 194   0.0000       1.326485        36.0955 
 195   0.0000       1.336122        36.3577 
 196   0.0000       1.351586        36.7785 
 197   0.0000       1.356087        36.9010 
 198   0.0000       1.370459        37.2921 
 199   0.0000       1.380573        37.5673 
 200   0.0000       1.398014        38.0419 
 201   0.0000       1.403222        38.1836 
 202   0.0000       1.420908        38.6649 
 203   0.0000       1.428549        38.8728 
 204   0.0000       1.430054        38.9138 
 205   0.0000       1.435069        39.0502 
 206   0.0000       1.451079        39.4859 
 207   0.0000       1.464348        39.8469 
 208   0.0000       1.483688        40.3732 
 209   0.0000       1.488898        40.5150 
 210   0.0000       1.493785        40.6480 
 211   0.0000       1.503260        40.9058 
 212   0.0000       1.518772        41.3279 
 213   0.0000       1.538529        41.8655 
 214   0.0000       1.551367        42.2148 
 215   0.0000       1.556229        42.3471 
 216   0.0000       1.564916        42.5835 
 217   0.0000       1.577167        42.9169 
 218   0.0000       1.592251        43.3273 
 219   0.0000       1.602967        43.6190 
 220   0.0000       1.633381        44.4466 
 221   0.0000       1.645148        44.7667 
 222   0.0000       1.657849        45.1124 
 223   0.0000       1.666930        45.3595 
 224   0.0000       1.684946        45.8497 
 225   0.0000       1.713945        46.6388 
 226   0.0000       1.719913        46.8012 
 227   0.0000       1.733985        47.1841 
 228   0.0000       1.746783        47.5324 
 229   0.0000       1.760496        47.9055 
 230   0.0000       1.769257        48.1439 
 231   0.0000       1.792252        48.7697 
 232   0.0000       1.834818        49.9279 
 233   0.0000       1.852980        50.4221 
 234   0.0000       1.861123        50.6437 
 235   0.0000       1.872445        50.9518 
 236   0.0000       1.878113        51.1060 
 237   0.0000       1.906003        51.8650 
 238   0.0000       1.917818        52.1865 
 239   0.0000       1.940096        52.7927 
 240   0.0000       1.966524        53.5118 
 241   0.0000       1.979627        53.8684 
 242   0.0000       1.993517        54.2464 
 243   0.0000       1.998519        54.3825 
 244   0.0000       2.024536        55.0904 
 245   0.0000       2.031244        55.2729 
 246   0.0000       2.046749        55.6949 
 247   0.0000       2.069834        56.3230 
 248   0.0000       2.076506        56.5046 
 249   0.0000       2.091741        56.9192 
 250   0.0000       2.127186        57.8837 
 251   0.0000       2.152701        58.5780 
 252   0.0000       2.172581        59.1189 
 253   0.0000       2.185128        59.4603 
 254   0.0000       2.207062        60.0572 
 255   0.0000       2.215795        60.2948 
 256   0.0000       2.225119        60.5486 
 257   0.0000       2.258588        61.4593 
 258   0.0000       2.271068        61.7989 
 259   0.0000       2.289155        62.2911 
 260   0.0000       2.325243        63.2731 
 261   0.0000       2.334936        63.5368 
 262   0.0000       2.357318        64.1459 
 263   0.0000       2.372990        64.5723 
 264   0.0000       2.381808        64.8123 
 265   0.0000       2.400115        65.3105 
 266   0.0000       2.425059        65.9892 
 267   0.0000       2.441281        66.4306 
 268   0.0000       2.460204        66.9455 
 269   0.0000       2.489748        67.7495 
 270   0.0000       2.497354        67.9564 
 271   0.0000       2.506326        68.2006 
 272   0.0000       2.523683        68.6729 
 273   0.0000       2.532771        68.9202 
 274   0.0000       2.534799        68.9754 
 275   0.0000       2.562472        69.7284 
 276   0.0000       2.564573        69.7856 
 277   0.0000       2.575050        70.0707 
 278   0.0000       2.591290        70.5126 
 279   0.0000       2.605750        70.9061 
 280   0.0000       2.609532        71.0090 
 281   0.0000       2.631267        71.6004 
 282   0.0000       2.651730        72.1572 
 283   0.0000       2.661280        72.4171 
 284   0.0000       2.668848        72.6231 
 285   0.0000       2.687293        73.1250 
 286   0.0000       2.697079        73.3912 
 287   0.0000       2.727692        74.2243 
 288   0.0000       2.739158        74.5363 
 289   0.0000       2.751519        74.8726 
 290   0.0000       2.778060        75.5949 
 291   0.0000       2.788649        75.8830 
 292   0.0000       2.790652        75.9375 
 293   0.0000       2.818346        76.6911 
 294   0.0000       2.834788        77.1385 
 295   0.0000       2.841695        77.3264 
 296   0.0000       2.854493        77.6747 
 297   0.0000       2.861973        77.8783 
 298   0.0000       2.880121        78.3721 
 299   0.0000       2.887212        78.5650 
 300   0.0000       2.897046        78.8326 
 301   0.0000       2.900756        78.9336 
 302   0.0000       2.913692        79.2856 
 303   0.0000       2.925252        79.6001 
 304   0.0000       2.942131        80.0594 
 305   0.0000       2.949728        80.2662 
 306   0.0000       2.960711        80.5650 
 307   0.0000       2.970390        80.8284 
 308   0.0000       2.989857        81.3581 
 309   0.0000       3.001489        81.6747 
 310   0.0000       3.008802        81.8737 
 311   0.0000       3.012344        81.9700 
 312   0.0000       3.020822        82.2007 
 313   0.0000       3.027962        82.3950 
 314   0.0000       3.043276        82.8117 
 315   0.0000       3.046437        82.8978 
 316   0.0000       3.061385        83.3045 
 317   0.0000       3.063982        83.3752 
 318   0.0000       3.073345        83.6300 
 319   0.0000       3.081077        83.8404 
 320   0.0000       3.093231        84.1711 
 321   0.0000       3.105737        84.5114 
 322   0.0000       3.113950        84.7349 
 323   0.0000       3.125538        85.0502 
 324   0.0000       3.127699        85.1090 
 325   0.0000       3.141328        85.4799 
 326   0.0000       3.168537        86.2203 
 327   0.0000       3.175526        86.4104 
 328   0.0000       3.179412        86.5162 
 329   0.0000       3.182302        86.5948 
 330   0.0000       3.191390        86.8421 
 331   0.0000       3.205967        87.2388 
 332   0.0000       3.221664        87.6659 
 333   0.0000       3.231768        87.9409 
 334   0.0000       3.245526        88.3152 
 335   0.0000       3.247933        88.3808 
 336   0.0000       3.257005        88.6276 
 337   0.0000       3.265026        88.8459 
 338   0.0000       3.277036        89.1727 
 339   0.0000       3.285457        89.4018 
 340   0.0000       3.303531        89.8937 
 341   0.0000       3.315163        90.2102 
 342   0.0000       3.324633        90.4679 
 343   0.0000       3.330292        90.6218 
 344   0.0000       3.347282        91.0842 
 345   0.0000       3.359399        91.4139 
 346   0.0000       3.367332        91.6298 
 347   0.0000       3.384638        92.1007 
 348   0.0000       3.391720        92.2934 
 349   0.0000       3.394502        92.3691 
 350   0.0000       3.402053        92.5746 
 351   0.0000       3.414467        92.9124 
 352   0.0000       3.427307        93.2618 
 353   0.0000       3.436796        93.5200 
 354   0.0000       3.442700        93.6806 
 355   0.0000       3.451482        93.9196 
 356   0.0000       3.465244        94.2941 
 357   0.0000       3.481095        94.7254 
 358   0.0000       3.494116        95.0797 
 359   0.0000       3.500297        95.2479 
 360   0.0000       3.502724        95.3140 
 361   0.0000       3.512171        95.5710 
 362   0.0000       3.527226        95.9807 
 363   0.0000       3.548359        96.5557 
 364   0.0000       3.562312        96.9354 
 365   0.0000       3.567920        97.0881 
 366   0.0000       3.578224        97.3684 
 367   0.0000       3.594103        97.8005 
 368   0.0000       3.606136        98.1279 
 369   0.0000       3.609249        98.2127 
 370   0.0000       3.624013        98.6144 
 371   0.0000       3.627180        98.7006 
 372   0.0000       3.635871        98.9371 
 373   0.0000       3.651411        99.3599 
 374   0.0000       3.666823        99.7793 
 375   0.0000       3.691432       100.4490 
 376   0.0000       3.698399       100.6385 
 377   0.0000       3.718785       101.1933 
 378   0.0000       3.722129       101.2843 
 379   0.0000       3.734542       101.6221 
 380   0.0000       3.737756       101.7095 
 381   0.0000       3.763079       102.3986 
 382   0.0000       3.765794       102.4725 
 383   0.0000       3.774343       102.7051 
 384   0.0000       3.778931       102.8299 
 385   0.0000       3.800106       103.4061 
 386   0.0000       3.809928       103.6734 
 387   0.0000       3.839712       104.4839 
 388   0.0000       3.843688       104.5921 
 389   0.0000       3.860312       105.0444 
 390   0.0000       3.873237       105.3961 
 391   0.0000       3.891924       105.9046 
 392   0.0000       3.902660       106.1968 
 393   0.0000       3.912442       106.4630 
 394   0.0000       3.935892       107.1011 
 395   0.0000       3.951247       107.5189 
 396   0.0000       3.959313       107.7384 
 397   0.0000       3.968332       107.9838 
 398   0.0000       3.990541       108.5881 
 399   0.0000       4.001882       108.8968 
 400   0.0000       4.007647       109.0536 
 401   0.0000       4.017160       109.3125 
 402   0.0000       4.057340       110.4058 
 403   0.0000       4.060294       110.4862 
 404   0.0000       4.066286       110.6493 
 405   0.0000       4.080212       111.0282 
 406   0.0000       4.097442       111.4971 
 407   0.0000       4.103613       111.6650 
 408   0.0000       4.125900       112.2714 
 409   0.0000       4.139014       112.6283 
 410   0.0000       4.148444       112.8849 
 411   0.0000       4.151556       112.9696 
 412   0.0000       4.162997       113.2809 
 413   0.0000       4.166151       113.3667 
 414   0.0000       4.189246       113.9952 
 415   0.0000       4.195114       114.1548 
 416   0.0000       4.211967       114.6135 
 417   0.0000       4.226754       115.0158 
 418   0.0000       4.239422       115.3605 
 419   0.0000       4.250318       115.6570 
 420   0.0000       4.260304       115.9288 
 421   0.0000       4.267856       116.1343 
 422   0.0000       4.289212       116.7154 
 423   0.0000       4.305161       117.1494 
 424   0.0000       4.323993       117.6618 
 425   0.0000       4.347541       118.3026 
 426   0.0000       4.364469       118.7632 
 427   0.0000       4.374256       119.0296 
 428   0.0000       4.388759       119.4242 
 429   0.0000       4.391670       119.5034 
 430   0.0000       4.412379       120.0669 
 431   0.0000       4.442162       120.8774 
 432   0.0000       4.450734       121.1106 
 433   0.0000       4.463494       121.4579 
 434   0.0000       4.493862       122.2842 
 435   0.0000       4.516911       122.9114 
 436   0.0000       4.538604       123.5017 
 437   0.0000       4.553078       123.8956 
 438   0.0000       4.563236       124.1720 
 439   0.0000       4.574856       124.4882 
 440   0.0000       4.591006       124.9276 
 441   0.0000       4.616512       125.6217 
 442   0.0000       4.638985       126.2332 
 443   0.0000       4.648013       126.4789 
 444   0.0000       4.664393       126.9246 
 445   0.0000       4.686786       127.5339 
 446   0.0000       4.695521       127.7716 
 447   0.0000       4.715338       128.3109 
 448   0.0000       4.725580       128.5896 
 449   0.0000       4.743861       129.0870 
 450   0.0000       4.759288       129.5068 
 451   0.0000       4.772788       129.8742 
 452   0.0000       4.794336       130.4605 
 453   0.0000       4.820685       131.1775 
 454   0.0000       4.836447       131.6064 
 455   0.0000       4.856466       132.1511 
 456   0.0000       4.886500       132.9684 
 457   0.0000       4.906869       133.5227 
 458   0.0000       4.913891       133.7138 
 459   0.0000       4.939159       134.4014 
 460   0.0000       4.961843       135.0186 
 461   0.0000       4.975252       135.3835 
 462   0.0000       4.996778       135.9692 
 463   0.0000       5.016617       136.5091 
 464   0.0000       5.027273       136.7991 
 465   0.0000       5.038691       137.1098 
 466   0.0000       5.050835       137.4402 
 467   0.0000       5.085573       138.3855 
 468   0.0000       5.096953       138.6951 
 469   0.0000       5.105561       138.9294 
 470   0.0000       5.110544       139.0650 
 471   0.0000       5.132488       139.6621 
 472   0.0000       5.150775       140.1597 
 473   0.0000       5.168365       140.6384 
 474   0.0000       5.170383       140.6933 
 475   0.0000       5.178821       140.9229 
 476   0.0000       5.198681       141.4633 
 477   0.0000       5.212181       141.8307 
 478   0.0000       5.229840       142.3112 
 479   0.0000       5.235534       142.4661 
 480   0.0000       5.260228       143.1381 
 481   0.0000       5.267459       143.3349 
 482   0.0000       5.271360       143.4410 
 483   0.0000       5.288751       143.9142 
 484   0.0000       5.299465       144.2058 
 485   0.0000       5.322650       144.8367 
 486   0.0000       5.332027       145.0918 
 487   0.0000       5.362477       145.9204 
 488   0.0000       5.379326       146.3789 
 489   0.0000       5.393721       146.7706 
 490   0.0000       5.408022       147.1598 
 491   0.0000       5.447248       148.2272 
 492   0.0000       5.468416       148.8032 
 493   0.0000       5.475451       148.9946 
 494   0.0000       5.498372       149.6183 
 495   0.0000       5.525039       150.3440 
 496   0.0000       5.528925       150.4497 
 497   0.0000       5.543143       150.8366 
 498   0.0000       5.550469       151.0359 
 499   0.0000       5.554968       151.1584 
 500   0.0000       5.570314       151.5759 
 501   0.0000       5.589466       152.0971 
 502   0.0000       5.620728       152.9478 
 503   0.0000       5.638249       153.4246 
 504   0.0000       5.640825       153.4947 
 505   0.0000       5.669483       154.2745 
 506   0.0000       5.695305       154.9771 
 507   0.0000       5.711016       155.4046 
 508   0.0000       5.752118       156.5231 
 509   0.0000       5.773495       157.1048 
 510   0.0000       5.791853       157.6043 
 511   0.0000       5.809736       158.0909 
 512   0.0000       5.834540       158.7659 
 513   0.0000       5.877681       159.9398 
 514   0.0000       5.890980       160.3017 
 515   0.0000       5.932439       161.4299 
 516   0.0000       5.949423       161.8920 
 517   0.0000       5.991118       163.0266 
 518   0.0000       6.020871       163.8362 
 519   0.0000       6.092082       165.7740 
 520   0.0000       6.096560       165.8958 
 521   0.0000       6.109506       166.2481 
 522   0.0000       6.122503       166.6018 
 523   0.0000       6.158394       167.5784 
 524   0.0000       6.241433       169.8380 
 525   0.0000       6.286076       171.0528 
 526   0.0000       6.312805       171.7802 
 527   0.0000       6.331806       172.2972 
 528   0.0000       6.379695       173.6003 
 529   0.0000       6.403573       174.2501 
 530   0.0000       6.424128       174.8094 
 531   0.0000       6.442342       175.3050 
 532   0.0000       6.456424       175.6882 
 533   0.0000       6.480223       176.3358 
 534   0.0000       6.492446       176.6684 
 535   0.0000       6.554548       178.3583 
 536   0.0000       6.598856       179.5640 
 537   0.0000       6.619371       180.1222 
 538   0.0000       6.661724       181.2747 
 539   0.0000       6.682553       181.8415 
 540   0.0000       6.698460       182.2744 
 541   0.0000       6.714109       182.7002 
 542   0.0000       6.734804       183.2633 
 543   0.0000       6.758386       183.9050 
 544   0.0000       6.766631       184.1294 
 545   0.0000       6.827707       185.7914 
 546   0.0000       6.834028       185.9634 
 547   0.0000       6.918275       188.2558 
 548   0.0000       6.922352       188.3668 
 549   0.0000       7.033850       191.4008 
 550   0.0000       7.054899       191.9736 
 551   0.0000       7.079433       192.6412 
 552   0.0000       7.086185       192.8249 
 553   0.0000       7.138107       194.2378 
 554   0.0000       7.164962       194.9685 
 555   0.0000       7.218008       196.4120 
 556   0.0000       7.415923       201.7975 
 557   0.0000       7.579944       206.2608 
 558   0.0000      23.124934       629.2614 
 559   0.0000      23.207965       631.5208 
 560   0.0000      23.231854       632.1709 
 561   0.0000      23.266483       633.1132 
 562   0.0000      23.346253       635.2839 
 563   0.0000      23.370831       635.9526 
 564   0.0000      32.708490       890.0433 
 565   0.0000      32.792093       892.3182 
 566   0.0000      32.812581       892.8757 
 567   0.0000      43.908963      1194.8236 
 568   0.0000      43.922900      1195.2029 
 569   0.0000      44.003727      1197.4023 
 570   0.0000      44.020845      1197.8681 

                    ********************************
                    * MULLIKEN POPULATION ANALYSIS *
                    ********************************

-----------------------
MULLIKEN ATOMIC CHARGES
-----------------------
   0 N :   -0.162864
   1 H :    0.213861
   2 C :   -0.123270
   3 C :    0.346477
   4 H :    0.148770
   5 H :    0.164714
   6 O :   -0.355564
   7 C :    0.231843
   8 C :   -0.087880
   9 O :   -0.389176
  10 N :   -0.161504
  11 H :    0.153295
  12 H :    0.157035
  13 H :    0.201715
  14 C :    0.252567
  15 C :   -0.170538
  16 O :   -0.398845
  17 H :    0.180475
  18 H :    0.167603
  19 O :   -0.262892
  20 H :    0.263228
  21 N :   -0.072738
  22 H :    0.233693
  23 H :    0.234652
  24 H :    0.235342
Sum of atomic charges:    1.0000000

--------------------------------
MULLIKEN REDUCED ORBITAL CHARGES
--------------------------------
  0 N s       :     3.404426  s :     3.404426
      pz      :     1.118243  p :     3.699735
      px      :     1.159930
      py      :     1.421561
      dz2     :     0.011498  d :     0.055218
      dxz     :     0.016398
      dyz     :     0.009946
      dx2y2   :     0.007866
      dxy     :     0.009511
      f0      :     0.000427  f :     0.003485
      f+1     :     0.000551
      f-1     :     0.000441
      f+2     :     0.000337
      f-2     :     0.000627
      f+3     :     0.000617
      f-3     :     0.000486
  1 H s       :     0.719904  s :     0.719904
      pz      :     0.022012  p :     0.061004
      px      :     0.018474
      py      :     0.020519
      dz2     :     0.001258  d :     0.005231
      dxz     :     0.001232
      dyz     :     0.000941
      dx2y2   :     0.001031
      dxy     :     0.000768
  2 C s       :     3.213241  s :     3.213241
      pz      :     0.837301  p :     2.795253
      px      :     1.046346
      py      :     0.911607
      dz2     :     0.027447  d :     0.107366
      dxz     :     0.024757
      dyz     :     0.018755
      dx2y2   :     0.012166
      dxy     :     0.024240
      f0      :     0.001561  f :     0.007409
      f+1     :     0.001326
      f-1     :     0.000996
      f+2     :     0.000752
      f-2     :     0.001163
      f+3     :     0.000776
      f-3     :     0.000836
  3 C s       :     3.104563  s :     3.104563
      pz      :     0.710784  p :     2.260505
      px      :     0.733832
      py      :     0.815889
      dz2     :     0.014833  d :     0.263959
      dxz     :     0.068411
      dyz     :     0.031888
      dx2y2   :     0.065401
      dxy     :     0.083426
      f0      :     0.002407  f :     0.024496
      f+1     :     0.002538
      f-1     :     0.001042
      f+2     :     0.002310
      f-2     :     0.003735
      f+3     :     0.004996
      f-3     :     0.007467
  4 H s       :     0.815431  s :     0.815431
      pz      :     0.008470  p :     0.033699
      px      :     0.012479
      py      :     0.012750
      dz2     :     0.000190  d :     0.002100
      dxz     :     0.000525
      dyz     :     0.000301
      dx2y2   :     0.000792
      dxy     :     0.000293
  5 H s       :     0.798309  s :     0.798309
      pz      :     0.013035  p :     0.034915
      px      :     0.013554
      py      :     0.008326
      dz2     :     0.000719  d :     0.002061
      dxz     :     0.000290
      dyz     :     0.000420
      dx2y2   :     0.000206
      dxy     :     0.000427
  6 O s       :     3.803993  s :     3.803993
      pz      :     1.433624  p :     4.520552
      px      :     1.347573
      py      :     1.739354
      dz2     :     0.003231  d :     0.029215
      dxz     :     0.009548
      dyz     :     0.000869
      dx2y2   :     0.008350
      dxy     :     0.007216
      f0      :     0.000117  f :     0.001804
      f+1     :     0.000290
      f-1     :     0.000039
      f+2     :     0.000377
      f-2     :     0.000097
      f+3     :     0.000418
      f-3     :     0.000466
  7 C s       :     3.136436  s :     3.136436
      pz      :     0.839834  p :     2.358969
      px      :     0.771925
      py      :     0.747211
      dz2     :     0.073163  d :     0.251451
      dxz     :     0.040925
      dyz     :     0.035667
[...]
     53      -0.007082  -0.551459   0.000548   0.000701   0.003271  -0.000887
     54      -0.001201   0.376798  -0.000129  -0.000041  -0.016231  -0.000198
     55      -0.001463   0.520277  -0.000285  -0.000041  -0.010962   0.000770
     56       0.001470  -0.461835   0.000161   0.000046   0.010359   0.000861
     57       0.000013   0.000029  -0.000380   0.000203   0.000875  -0.059823
     58      -0.000032   0.000039  -0.000466  -0.000113  -0.000383   0.018203
     59      -0.000018   0.000085   0.000123  -0.000046  -0.000096   0.007773
     60      -0.000469  -0.000482  -0.000417  -0.003517  -0.015752   0.950885
     61       0.000091   0.000410  -0.003509   0.000704   0.004057  -0.266181
     62       0.000259   0.000185  -0.001224   0.000983   0.002539  -0.138949
     63       0.000001   0.001052   0.000000   0.000020   0.036120   0.000059
     64      -0.000010   0.001225  -0.000057   0.000030   0.041218   0.001404
     65      -0.000080  -0.000431  -0.000314  -0.000016  -0.033476  -0.001752
     66      -0.000157  -0.003767   0.000325  -0.000094  -0.160315   0.006493
     67       0.000117   0.005217  -0.000400  -0.000051   0.194513  -0.008100
     68       0.000028   0.000312  -0.000098  -0.000006   0.032396  -0.001700
     69      -0.000096  -0.001080   0.000068  -0.000392  -0.361897  -0.006659
     70      -0.000048  -0.016079   0.000291  -0.000299  -0.788393  -0.015691
     71      -0.000052   0.012680  -0.000078   0.000159   0.421605   0.008690
     72      -0.000094  -0.006081  -0.000551  -0.000018   0.006800  -0.003350
     73       0.000183  -0.002669   0.001126   0.000067   0.008203   0.005539
     74       0.001037  -0.012632   0.004671   0.000046   0.007337   0.020310
                 72         73         74    
      0      -0.000022  -0.043518   0.003035
      1      -0.000058  -0.032430   0.002248
      2       0.000095   0.049530  -0.003445
      3       0.001046   0.590909  -0.041044
      4       0.001057   0.424546  -0.028952
      5      -0.001124  -0.677941   0.047118
      6      -0.000002  -0.000898   0.000050
      7       0.000012   0.000474  -0.000017
      8       0.000018  -0.000756   0.000087
      9      -0.000301   0.000104  -0.000072
     10      -0.000063  -0.000140  -0.000022
     11       0.000059  -0.000160   0.000061
     12       0.000085   0.005575  -0.000385
     13       0.000111   0.002732  -0.000136
     14       0.000087   0.002399  -0.000134
     15       0.000147   0.003697  -0.000158
     16      -0.000103   0.002259  -0.000151
     17      -0.000097  -0.010325   0.000613
     18       0.000180  -0.000121   0.000037
     19      -0.000109   0.000051   0.000001
     20      -0.000239   0.000104  -0.000047
     21      -0.000123   0.000210  -0.000061
     22      -0.000103   0.000363  -0.000117
     23       0.000082   0.001191  -0.000014
     24      -0.000024   0.000050   0.000958
     25       0.000041  -0.000375  -0.000293
     26      -0.000017  -0.000218  -0.000752
     27       0.000052   0.000835   0.000021
     28       0.000066   0.000877   0.000009
     29      -0.000068  -0.000511  -0.000026
     30       0.000006   0.002030   0.035586
     31      -0.000356   0.004368   0.063342
     32       0.000041  -0.000678  -0.010040
     33      -0.000059   0.002245  -0.001982
     34       0.000045   0.002097  -0.009758
     35      -0.000102  -0.000624   0.002585
     36       0.000225  -0.000120  -0.006155
     37      -0.000028   0.000461   0.000206
     38       0.000018   0.000682   0.000194
     39       0.002176  -0.032890  -0.469701
     40       0.003850  -0.060099  -0.863960
     41      -0.000799   0.010339   0.150226
     42       0.000432   0.000863  -0.001281
     43      -0.000047   0.000625   0.000939
     44       0.000216  -0.000095  -0.000533
     45       0.000755  -0.000033   0.000327
     46       0.000326  -0.000071   0.000146
     47       0.000468   0.000016  -0.000051
     48       0.000110  -0.000508  -0.000899
     49       0.000015  -0.000442  -0.000813
     50      -0.000080   0.000177   0.000015
     51       0.000552  -0.000093  -0.000464
     52      -0.003231   0.000038  -0.000017
     53      -0.005199   0.000144   0.000234
     54      -0.002987   0.000080  -0.003288
     55      -0.001974  -0.000634  -0.003078
     56       0.001715   0.000052   0.001633
     57       0.000927  -0.001373   0.000273
     58      -0.000190   0.000431  -0.000023
     59      -0.000135   0.000193  -0.000066
     60      -0.013643   0.022222  -0.004261
     61       0.003750  -0.006799   0.000497
     62       0.002109  -0.002134   0.000666
     63      -0.037915  -0.000092   0.000002
     64       0.066577  -0.000174   0.000487
     65       0.004170   0.000294  -0.000215
     66       0.609144  -0.000318   0.001978
     67      -0.739653   0.000235  -0.002509
     68      -0.135390   0.000102  -0.000472
     69      -0.097149   0.000958  -0.001294
     70      -0.186969   0.003293  -0.004971
     71       0.109172  -0.001510   0.002505
     72      -0.001391   0.000508   0.000013
     73       0.005244  -0.000746   0.000200
     74      -0.031800  -0.003279   0.001507


-----------
IR SPECTRUM
-----------

 Mode   freq       eps      Int      T**2         TX        TY        TZ
       cm**-1   L/(mol*cm) km/mol    a.u.
----------------------------------------------------------------------------
  6:     54.59   0.000892    4.51  0.005096  (-0.065378 -0.005685  0.028098)
  7:     91.10   0.001058    5.35  0.003625  ( 0.050437 -0.022612 -0.023869)
  8:    114.37   0.002821   14.26  0.007697  (-0.026779  0.073103  0.040445)
  9:    121.47   0.003985   20.14  0.010238  ( 0.020802 -0.010944  0.098415)
 10:    139.91   0.001352    6.83  0.003016  ( 0.005245  0.034408 -0.042482)
 11:    193.50   0.003302   16.69  0.005325  ( 0.023241 -0.050443 -0.047334)
 12:    199.62   0.004057   20.50  0.006342  (-0.010833  0.068186 -0.039687)
 13:    224.31   0.006056   30.61  0.008426  ( 0.013755  0.010497 -0.090146)
 14:    263.20   0.000984    4.97  0.001167  (-0.002435  0.017258  0.029382)
 15:    285.10   0.005689   28.75  0.006227  ( 0.035223 -0.049317 -0.050543)
 16:    300.30   0.008059   40.73  0.008375  ( 0.057751  0.005322  0.070793)
 17:    337.35   0.000641    3.24  0.000593  (-0.012914  0.020452  0.002758)
 18:    374.50   0.006145   31.05  0.005120  ( 0.050432 -0.048316  0.015574)
 19:    423.53   0.008045   40.66  0.005928  (-0.056515  0.036696  0.037248)
 20:    444.69   0.002014   10.18  0.001413  (-0.004480  0.036776  0.006382)
 21:    468.72   0.002642   13.35  0.001759  (-0.028996  0.011100 -0.028199)
 22:    555.14   0.017118   86.51  0.009623  ( 0.029542  0.047798  0.080407)
 23:    589.68   0.014182   71.67  0.007505  (-0.019401  0.067571 -0.050626)
 24:    622.72   0.007610   38.46  0.003814  ( 0.031313 -0.043208 -0.031083)
 25:    641.04   0.012635   63.85  0.006151  ( 0.031090  0.040352  0.059634)
 26:    676.54   0.013727   69.37  0.006332  ( 0.018064  0.067892  0.037366)
 27:    696.30   0.001362    6.88  0.000610  (-0.007552  0.010332 -0.021133)
 28:    775.89   0.023442  118.47  0.009428  ( 0.002526  0.057548 -0.078169)
 29:    806.00   0.006550   33.10  0.002536  (-0.012534 -0.002457 -0.048713)
 30:    821.05   0.002214   11.19  0.000841  ( 0.012855 -0.004953 -0.025527)
 31:    871.14   0.001865    9.43  0.000668  (-0.019665  0.011206 -0.012484)
 32:    896.70   0.000923    4.66  0.000321  (-0.009946 -0.007352  0.012971)
 33:    924.23   0.001571    7.94  0.000531  ( 0.004607  0.022338 -0.003212)
 34:    941.05   0.005423   27.41  0.001798  (-0.004198 -0.009605 -0.041092)
 35:   1004.29   0.000796    4.02  0.000247  (-0.010210  0.010009 -0.006553)
 36:   1020.44   0.000591    2.99  0.000181  (-0.000733  0.011489 -0.006951)
 37:   1050.82   0.001499    7.57  0.000445  (-0.016840  0.012554  0.001964)
 38:   1069.04   0.002170   10.97  0.000633  (-0.012471  0.021850  0.000669)
 39:   1107.98   0.001185    5.99  0.000334  (-0.001951 -0.006289 -0.017041)
 40:   1135.41   0.001464    7.40  0.000402  (-0.001020  0.014983 -0.013299)
 41:   1149.22   0.003881   19.61  0.001054  (-0.008189  0.025349  0.018554)
 42:   1238.48   0.001225    6.19  0.000309  ( 0.011329 -0.002598  0.013174)
 43:   1251.95   0.005737   28.99  0.001430  ( 0.025495  0.021380  0.017969)
 44:   1293.63   0.012123   61.26  0.002924  ( 0.044745 -0.029603 -0.006778)
 45:   1321.66   0.002987   15.09  0.000705  (-0.019179  0.004919 -0.017696)
 46:   1327.47   0.003258   16.47  0.000766  ( 0.003201  0.011394 -0.025018)
 47:   1344.49   0.001576    7.96  0.000366  ( 0.012402  0.008132  0.012074)
 48:   1372.08   0.002666   13.47  0.000606  (-0.015256 -0.018459  0.005737)
 49:   1387.53   0.002881   14.56  0.000648  ( 0.007497  0.017829  0.016548)
 50:   1428.31   0.018592   93.95  0.004062  ( 0.024950  0.057639 -0.010826)
 51:   1432.34   0.022739  114.92  0.004954  (-0.037550 -0.055936  0.020380)
 52:   1488.49   0.000842    4.26  0.000177  ( 0.006538 -0.008377  0.007976)
 53:   1491.38   0.004842   24.47  0.001013  (-0.012117 -0.003803  0.029189)
 54:   1492.61   0.002344   11.85  0.000490  ( 0.006236  0.021087  0.002567)
 55:   1547.95   0.038193  193.01  0.007700  (-0.087111 -0.002971  0.010123)
 56:   1574.15   0.018742   94.71  0.003715  ( 0.014783  0.046941  0.035964)
 57:   1584.70   0.042582  215.19  0.008385  ( 0.088519 -0.000896  0.023426)
 58:   1643.10   0.007809   39.46  0.001483  (-0.025151  0.027406 -0.009974)
 59:   1679.56   0.027601  139.48  0.005128  (-0.046433  0.044265  0.031824)
 60:   1758.08   0.027497  138.96  0.004881  ( 0.047712  0.038790 -0.033162)
 61:   1778.13   0.025127  126.98  0.004410  ( 0.032909  0.057622  0.002566)
 62:   1813.86   0.100638  508.58  0.017314  (-0.126515 -0.000956  0.036156)
 63:   2963.61   0.170014  859.18  0.017902  ( 0.032113 -0.047698 -0.120813)
 64:   3119.94   0.000757    3.83  0.000076  (-0.005674  0.004661  0.004669)
 65:   3133.34   0.000296    1.49  0.000029  ( 0.003405 -0.000415  0.004203)
 66:   3141.51   0.000278    1.41  0.000028  (-0.003238  0.004116  0.000477)
 67:   3184.88   0.000308    1.56  0.000030  ( 0.000241 -0.001166 -0.005365)
 68:   3206.32   0.000048    0.24  0.000005  (-0.001755 -0.000826  0.000940)
 69:   3209.72   0.000037    0.19  0.000004  (-0.001887 -0.000036 -0.000164)
 70:   3421.03   0.015130   76.46  0.001380  (-0.017755 -0.024678  0.021351)
 71:   3524.34   0.056797  287.03  0.005029  ( 0.065717 -0.022549  0.014208)
 72:   3555.34   0.024285  122.73  0.002132  ( 0.026656 -0.037304 -0.005428)
 73:   3642.63   0.012575   63.55  0.001077  ( 0.021620  0.013439 -0.020718)
 74:   3649.83   0.014331   72.42  0.001225  (-0.025434 -0.023937  0.002335)

* The epsilon (eps) is given for a Dirac delta lineshape.
** The dipole moment derivative (T) already includes vibrational overlap.

The first frequency considered to be a vibration is 6
The total number of vibrations considered is 69


--------------------------
THERMOCHEMISTRY AT 298.15K
--------------------------

Temperature         ... 298.15 K
Pressure            ... 1.00 atm
Total Mass          ... 190.18 AMU

Throughout the following assumptions are being made:
  (1) The electronic state is orbitally nondegenerate
  (2) There are no thermally accessible electronically excited states
  (3) Hindered rotations indicated by low frequency modes are not
      treated as such but are treated as vibrations and this may
      cause some error
  (4) All equations used are the standard statistical mechanics
      equations for an ideal gas
  (5) All vibrations are strictly harmonic

freq.      54.59  E(vib)   ...       0.52 
freq.      91.10  E(vib)   ...       0.47 
freq.     114.37  E(vib)   ...       0.44 
freq.     121.47  E(vib)   ...       0.44 
freq.     139.91  E(vib)   ...       0.41 
freq.     193.50  E(vib)   ...       0.36 
freq.     199.62  E(vib)   ...       0.35 
freq.     224.31  E(vib)   ...       0.33 
freq.     263.20  E(vib)   ...       0.29 
freq.     285.10  E(vib)   ...       0.28 
freq.     300.30  E(vib)   ...       0.26 
freq.     337.35  E(vib)   ...       0.24 
freq.     374.50  E(vib)   ...       0.21 
freq.     423.53  E(vib)   ...       0.18 
freq.     444.69  E(vib)   ...       0.17 
freq.     468.72  E(vib)   ...       0.16 
freq.     555.14  E(vib)   ...       0.12 
freq.     589.68  E(vib)   ...       0.10 
freq.     622.72  E(vib)   ...       0.09 
freq.     641.04  E(vib)   ...       0.09 
freq.     676.54  E(vib)   ...       0.08 
freq.     696.30  E(vib)   ...       0.07 
freq.     775.89  E(vib)   ...       0.05 
freq.     806.00  E(vib)   ...       0.05 
freq.     821.05  E(vib)   ...       0.05 
freq.     871.14  E(vib)   ...       0.04 
freq.     896.70  E(vib)   ...       0.03 
freq.     924.23  E(vib)   ...       0.03 
freq.     941.05  E(vib)   ...       0.03 
freq.    1004.29  E(vib)   ...       0.02 
freq.    1020.44  E(vib)   ...       0.02 
freq.    1050.82  E(vib)   ...       0.02 
freq.    1069.04  E(vib)   ...       0.02 
freq.    1107.98  E(vib)   ...       0.02 
freq.    1135.41  E(vib)   ...       0.01 
freq.    1149.22  E(vib)   ...       0.01 
freq.    1238.48  E(vib)   ...       0.01 
freq.    1251.95  E(vib)   ...       0.01 
freq.    1293.63  E(vib)   ...       0.01 
freq.    1321.66  E(vib)   ...       0.01 
freq.    1327.47  E(vib)   ...       0.01 
freq.    1344.49  E(vib)   ...       0.01 
freq.    1372.08  E(vib)   ...       0.01 
freq.    1387.53  E(vib)   ...       0.00 
freq.    1428.31  E(vib)   ...       0.00 
freq.    1432.34  E(vib)   ...       0.00 
freq.    1488.49  E(vib)   ...       0.00 
freq.    1491.38  E(vib)   ...       0.00 
freq.    1492.61  E(vib)   ...       0.00 
freq.    1547.95  E(vib)   ...       0.00 
freq.    1574.15  E(vib)   ...       0.00 
freq.    1584.70  E(vib)   ...       0.00 
freq.    1643.10  E(vib)   ...       0.00 
freq.    1679.56  E(vib)   ...       0.00 
freq.    1758.08  E(vib)   ...       0.00 
freq.    1778.13  E(vib)   ...       0.00 
freq.    1813.86  E(vib)   ...       0.00 
freq.    2963.61  E(vib)   ...       0.00 
freq.    3119.94  E(vib)   ...       0.00 
freq.    3133.34  E(vib)   ...       0.00 
freq.    3141.51  E(vib)   ...       0.00 
freq.    3184.88  E(vib)   ...       0.00 
freq.    3206.32  E(vib)   ...       0.00 
freq.    3209.72  E(vib)   ...       0.00 
freq.    3421.03  E(vib)   ...       0.00 
freq.    3524.34  E(vib)   ...       0.00 
freq.    3555.34  E(vib)   ...       0.00 
freq.    3642.63  E(vib)   ...       0.00 
freq.    3649.83  E(vib)   ...       0.00 

------------
INNER ENERGY
------------

The inner energy is: U= E(el) + E(ZPE) + E(vib) + E(rot) + E(trans)
    E(el)   - is the total energy from the electronic structure calculation
              = E(kin-el) + E(nuc-el) + E(el-el) + E(nuc-nuc)
    E(ZPE)  - the the zero temperature vibrational energy from the frequency calculation
    E(vib)  - the the finite temperature correction to E(ZPE) due to population
              of excited vibrational states
    E(rot)  - is the rotational thermal energy
    E(trans)- is the translational thermal energy

Summary of contributions to the inner energy U:
Electronic energy                ...   -701.35083189 Eh
Zero point energy                ...      0.21048759 Eh     132.08 kcal/mol
Thermal vibrational correction   ...      0.00978759 Eh       6.14 kcal/mol
Thermal rotational correction    ...      0.00141627 Eh       0.89 kcal/mol
Thermal translational correction ...      0.00141627 Eh       0.89 kcal/mol
-----------------------------------------------------------------------
Total thermal energy                   -701.12772417 Eh


Summary of corrections to the electronic energy:
(perhaps to be used in another calculation)
Total thermal correction                  0.01262013 Eh       7.92 kcal/mol
Non-thermal (ZPE) correction              0.21048759 Eh     132.08 kcal/mol
-----------------------------------------------------------------------
Total correction                          0.22310772 Eh     140.00 kcal/mol


--------
ENTHALPY
--------

The enthalpy is H = U + kB*T
                kB is Boltzmann's constant
Total free energy                 ...   -701.12772417 Eh 
Thermal Enthalpy correction       ...      0.00094421 Eh       0.59 kcal/mol
-----------------------------------------------------------------------
Total Enthalpy                    ...   -701.12677996 Eh


Note: Only C1 symmetry has been detected, increase convergence thresholds 
      if your molecule has a higher symmetry. Symmetry factor of 1.0 is   
      used for the rotational entropy correction. 
 

Note: Rotational entropy computed according to Herzberg 
Infrared and Raman Spectra, Chapter V,1, Van Nostrand Reinhold, 1945 
Point Group:  C1, Symmetry Number:   1  
Rotational constants in cm-1:     0.034018     0.027579     0.019803 

Vibrational entropy computed according to the QRRHO of S. Grimme
Chem.Eur.J. 2012 18 9955


-------
ENTROPY
-------

The entropy contributions are T*S = T*(S(el)+S(vib)+S(rot)+S(trans))
     S(el)   - electronic entropy
     S(vib)  - vibrational entropy
     S(rot)  - rotational entropy
     S(trans)- translational entropy
The entropies will be listed as multiplied by the temperature to get
units of energy

Electronic entropy                ...      0.00000000 Eh      0.00 kcal/mol
Vibrational entropy               ...      0.01686008 Eh     10.58 kcal/mol
Rotational entropy                ...      0.01465353 Eh      9.20 kcal/mol
Translational entropy             ...      0.01978162 Eh     12.41 kcal/mol
-----------------------------------------------------------------------
Final entropy term                ...      0.05129522 Eh     32.19 kcal/mol

In case the symmetry of your molecule has not been determined correctly
or in case you have a reason to use a different symmetry number we print 
out the resulting rotational entropy values for sn=1,12 :
 --------------------------------------------------------
|  sn= 1 | S(rot)=       0.01465353 Eh      9.20 kcal/mol|
|  sn= 2 | S(rot)=       0.01399907 Eh      8.78 kcal/mol|
|  sn= 3 | S(rot)=       0.01361624 Eh      8.54 kcal/mol|
|  sn= 4 | S(rot)=       0.01334462 Eh      8.37 kcal/mol|
|  sn= 5 | S(rot)=       0.01313393 Eh      8.24 kcal/mol|
|  sn= 6 | S(rot)=       0.01296178 Eh      8.13 kcal/mol|
|  sn= 7 | S(rot)=       0.01281624 Eh      8.04 kcal/mol|
|  sn= 8 | S(rot)=       0.01269016 Eh      7.96 kcal/mol|
|  sn= 9 | S(rot)=       0.01257895 Eh      7.89 kcal/mol|
|  sn=10 | S(rot)=       0.01247947 Eh      7.83 kcal/mol|
|  sn=11 | S(rot)=       0.01238948 Eh      7.77 kcal/mol|
|  sn=12 | S(rot)=       0.01230733 Eh      7.72 kcal/mol|
 --------------------------------------------------------


-------------------
GIBBS FREE ENERGY
-------------------

The Gibbs free energy is G = H - T*S

Total enthalpy                    ...   -701.12677996 Eh 
Total entropy correction          ...     -0.05129522 Eh    -32.19 kcal/mol
-----------------------------------------------------------------------
Final Gibbs free energy         ...   -701.17807519 Eh

For completeness - the Gibbs free energy minus the electronic energy
G-E(el)                           ...      0.17275671 Eh    108.41 kcal/mol


Timings for individual modules:

Sum of individual times         ...     6202.601 sec (= 103.377 min)
GTO integral calculation        ...       19.152 sec (=   0.319 min)   0.3 %
SCF iterations                  ...     1627.355 sec (=  27.123 min)  26.2 %
SCF Gradient evaluation         ...      340.939 sec (=   5.682 min)   5.5 %
Geometry relaxation             ...        0.605 sec (=   0.010 min)   0.0 %
Analytical frequency calculation...     3714.051 sec (=  61.901 min)  59.9 %
CHELPG charge generation        ...      500.500 sec (=   8.342 min)   8.1 %
                             ****ORCA TERMINATED NORMALLY****
TOTAL RUN TIME: 0 days 1 hours 43 minutes 46 seconds 862 msec
