
Lmod is automatically replacing "intel/2020.1.217" with "gcc/10.3.0".


Due to MODULEPATH changes, the following have been reloaded:
  1) blis/0.8.1     2) flexiblas/3.0.4

The following have been reloaded with a version change:
  1) gcccore/.9.3.0 => gcccore/.10.3.0        3) openmpi/4.0.3 => openmpi/4.1.1
  2) libfabric/1.10.1 => libfabric/1.12.1     4) ucx/1.8.0 => ucx/1.9.0

To execute ORCA, run: 
   ${EBROOTORCA}/orca orca.inp > orca.out

                                 *****************
                                 * O   R   C   A *
                                 *****************

                                            #,                                       
                                            ###                                      
                                            ####                                     
                                            #####                                    
                                            ######                                   
                                           ########,                                 
                                     ,,################,,,,,                         
                               ,,#################################,,                 
                          ,,##########################################,,             
                       ,#########################################, ''#####,          
                    ,#############################################,,   '####,        
                  ,##################################################,,,,####,       
                ,###########''''           ''''###############################       
              ,#####''   ,,,,##########,,,,          '''####'''          '####       
            ,##' ,,,,###########################,,,                        '##       
           ' ,,###''''                  '''############,,,                           
         ,,##''                                '''############,,,,        ,,,,,,###''
      ,#''                                            '''#######################'''  
     '                                                          ''''####''''         
             ,#######,   #######,   ,#######,      ##                                
            ,#'     '#,  ##    ##  ,#'     '#,    #''#        ######   ,####,        
            ##       ##  ##   ,#'  ##            #'  '#       #        #'  '#        
            ##       ##  #######   ##           ,######,      #####,   #    #        
            '#,     ,#'  ##    ##  '#,     ,#' ,#      #,         ##   #,  ,#        
             '#######'   ##     ##  '#######'  #'      '#     #####' # '####'        



                  #######################################################
                  #                        -***-                        #
                  #          Department of theory and spectroscopy      #
                  #    Directorship and core code : Frank Neese         #
                  #        Max Planck Institute fuer Kohlenforschung    #
                  #                Kaiser Wilhelm Platz 1               #
                  #                 D-45470 Muelheim/Ruhr               #
                  #                      Germany                        #
                  #                                                     #
                  #                  All rights reserved                #
                  #                        -***-                        #
                  #######################################################


                         Program Version 5.0.2 -  RELEASE  -


 With contributions from (in alphabetic order):
   Daniel Aravena         : Magnetic Suceptibility
   Michael Atanasov       : Ab Initio Ligand Field Theory (pilot matlab implementation)
   Alexander A. Auer      : GIAO ZORA, VPT2 properties, NMR spectrum
   Ute Becker             : Parallelization
   Giovanni Bistoni       : ED, misc. LED, open-shell LED, HFLD
   Martin Brehm           : Molecular dynamics
   Dmytro Bykov           : SCF Hessian
   Vijay G. Chilkuri      : MRCI spin determinant printing, contributions to CSF-ICE
   Dipayan Datta          : RHF DLPNO-CCSD density
   Achintya Kumar Dutta   : EOM-CC, STEOM-CC
   Dmitry Ganyushin       : Spin-Orbit,Spin-Spin,Magnetic field MRCI
   Miquel Garcia          : C-PCM and meta-GGA Hessian, CC/C-PCM, Gaussian charge scheme
   Yang Guo               : DLPNO-NEVPT2, F12-NEVPT2, CIM, IAO-localization
   Andreas Hansen         : Spin unrestricted coupled pair/coupled cluster methods
   Benjamin Helmich-Paris : MC-RPA, TRAH-SCF, COSX integrals
   Lee Huntington         : MR-EOM, pCC
   Robert Izsak           : Overlap fitted RIJCOSX, COSX-SCS-MP3, EOM
   Marcus Kettner         : VPT2
   Christian Kollmar      : KDIIS, OOCD, Brueckner-CCSD(T), CCSD density, CASPT2, CASPT2-K
   Simone Kossmann        : Meta GGA functionals, TD-DFT gradient, OOMP2, MP2 Hessian
   Martin Krupicka        : Initial AUTO-CI
   Lucas Lang             : DCDCAS
   Marvin Lechner         : AUTO-CI (C++ implementation), FIC-MRCC
   Dagmar Lenk            : GEPOL surface, SMD
   Dimitrios Liakos       : Extrapolation schemes; Compound Job, initial MDCI parallelization
   Dimitrios Manganas     : Further ROCIS development; embedding schemes
   Dimitrios Pantazis     : SARC Basis sets
   Anastasios Papadopoulos: AUTO-CI, single reference methods and gradients
   Taras Petrenko         : DFT Hessian,TD-DFT gradient, ASA, ECA, R-Raman, ABS, FL, XAS/XES, NRVS
   Peter Pinski           : DLPNO-MP2, DLPNO-MP2 Gradient
   Christoph Reimann      : Effective Core Potentials
   Marius Retegan         : Local ZFS, SOC
   Christoph Riplinger    : Optimizer, TS searches, QM/MM, DLPNO-CCSD(T), (RO)-DLPNO pert. Triples
   Tobias Risthaus        : Range-separated hybrids, TD-DFT gradient, RPA, STAB
   Michael Roemelt        : Original ROCIS implementation
   Masaaki Saitow         : Open-shell DLPNO-CCSD energy and density
   Barbara Sandhoefer     : DKH picture change effects
   Avijit Sen             : IP-ROCIS
   Kantharuban Sivalingam : CASSCF convergence, NEVPT2, FIC-MRCI
   Bernardo de Souza      : ESD, SOC TD-DFT
   Georgi Stoychev        : AutoAux, RI-MP2 NMR, DLPNO-MP2 response
   Willem Van den Heuvel  : Paramagnetic NMR
   Boris Wezisla          : Elementary symmetry handling
   Frank Wennmohs         : Technical directorship


 We gratefully acknowledge several colleagues who have allowed us to
 interface, adapt or use parts of their codes:
   Stefan Grimme, W. Hujo, H. Kruse, P. Pracht,  : VdW corrections, initial TS optimization,
                  C. Bannwarth, S. Ehlert          DFT functionals, gCP, sTDA/sTD-DF
   Ed Valeev, F. Pavosevic, A. Kumar             : LibInt (2-el integral package), F12 methods
   Garnet Chan, S. Sharma, J. Yang, R. Olivares  : DMRG
   Ulf Ekstrom                                   : XCFun DFT Library
   Mihaly Kallay                                 : mrcc  (arbitrary order and MRCC methods)
   Jiri Pittner, Ondrej Demel                    : Mk-CCSD
   Frank Weinhold                                : gennbo (NPA and NBO analysis)
   Christopher J. Cramer and Donald G. Truhlar   : smd solvation model
   Lars Goerigk                                  : TD-DFT with DH, B97 family of functionals
   V. Asgeirsson, H. Jonsson                     : NEB implementation
   FAccTs GmbH                                   : IRC, NEB, NEB-TS, DLPNO-Multilevel, CI-OPT
                                                   MM, QMMM, 2- and 3-layer-ONIOM, Crystal-QMMM,
                                                   LR-CPCM, SF, NACMEs, symmetry and pop. for TD-DFT,
                                                   nearIR, NL-DFT gradient (VV10), updates on ESD,
                                                   ML-optimized integration grids
   S Lehtola, MJT Oliveira, MAL Marques          : LibXC Library
   Liviu Ungur et al                             : ANISO software


 Your calculation uses the libint2 library for the computation of 2-el integrals
 For citations please refer to: http://libint.valeyev.net

 Your ORCA version has been built with support for libXC version: 5.1.0
 For citations please refer to: https://tddft.org/programs/libxc/

 This ORCA versions uses:
   CBLAS   interface :  Fast vector & matrix operations
   LAPACKE interface :  Fast linear algebra routines
   SCALAPACK package :  Parallel linear algebra routines
   Shared memory     :  Shared parallel matrices
   BLAS/LAPACK       :  OpenBLAS 0.3.15  USE64BITINT DYNAMIC_ARCH NO_AFFINITY Zen SINGLE_THREADED
        Core in use  :  Zen
   Copyright (c) 2011-2014, The OpenBLAS Project


Your calculation utilizes the atom-pairwise dispersion correction
with the Becke-Johnson damping scheme (D3BJ)
Cite in your paper:
S.Grimme, S.Ehrlich, L.Goerigk, J Comput Chem, (2011), 32, 1456–1465 
S.Grimme, J.Antony, S.Ehrlich and H.Krieg, J.Chem.Phys., 132, (2010), 154104 
   

================================================================================

----- Orbital basis set information -----
Your calculation utilizes the basis: def2-TZVPP
   F. Weigend and R. Ahlrichs, Phys. Chem. Chem. Phys. 7, 3297 (2005).

----- AuxJ basis set information -----
Your calculation utilizes the auxiliary basis: def2/J
   F. Weigend, Phys. Chem. Chem. Phys. 8, 1057 (2006).

================================================================================
                                        WARNINGS
                       Please study these warnings very carefully!
================================================================================


WARNING: Geometry Optimization
  ===> : Switching off AutoStart
         For restart on a previous wavefunction, please use MOREAD

INFO   : the flag for use of the SHARK integral package has been found!

================================================================================
                                       INPUT FILE
================================================================================
NAME = GGG-H_tt_021_OptFreq.inp
|  1> # GGG-H_tt_021 (old 107)
|  2> ! wB97X-D3BJ Opt Freq def2-TZVPP def2/J RIJCOSX VeryTightSCF
|  3> ! PAL8 defgrid3 VeryTightOpt
|  4> 
|  5> %maxcore 4096
|  6> 
|  7> %geom
|  8>   MaxIter 300
|  9>   # MaxStep 0.1
| 10>   Calc_Hess true
| 11>   Recalc_Hess 10
| 12> end
| 13> 
| 14> %chelpg
| 15>   grid 0.1
| 16>   rmax 3.0
| 17> end
| 18> 
| 19> * xyz 1 1 
| 20>  N   -2.461978   +0.100418   +1.842945
| 21>  H   -2.971336   -0.024151   +0.969039
| 22>  C   -2.624272   -0.915543   +2.856700
| 23>  C   -1.673259   -2.101174   +2.578830
| 24>  H   -2.373066   -0.486895   +3.842700
| 25>  H   -3.669383   -1.268759   +2.887055
| 26>  O   -0.972488   -2.179848   +1.582438
| 27>  C   -1.261288   +0.779924   +1.820054
| 28>  C   -0.779802   +1.180482   +0.415674
| 29>  O   -0.536636   +0.870737   +2.800194
| 30>  N   +0.000000   +0.000000   +0.000000
| 31>  H   -0.110761   +2.049728   +0.463511
| 32>  H   -1.596671   +1.366125   -0.301432
| 33>  H   -0.453013   -0.900876   +0.232548
| 34>  C   +1.334938   +0.000000   +0.000000
| 35>  C   +2.034091   -1.385629   -0.015390
| 36>  O   +2.081309   +0.995380   +0.000000
| 37>  H   +1.839069   -1.933925   -0.949238
| 38>  H   +1.722182   -2.005492   +0.839186
| 39>  O   -1.634029   -3.070248   +3.499707
| 40>  H   -2.228022   -2.874723   +4.252292
| 41>  N   +3.483470   -1.015959   +0.074767
| 42>  H   +3.363849   +0.084560   +0.035244
| 43>  H   +3.928038   -1.294022   +0.960715
| 44>  H   +4.058617   -1.360470   -0.705692
| 45> *
| 46> 
| 47>                          ****END OF INPUT****
================================================================================

                       *****************************
                       * Geometry Optimization Run *
                       *****************************

Geometry optimization settings:
Update method            Update   .... BFGS
Choice of coordinates    CoordSys .... Z-matrix Internals
Initial Hessian          InHess   .... Almoef's Model

Convergence Tolerances:
Energy Change            TolE     ....  2.0000e-07 Eh
Max. Gradient            TolMAXG  ....  3.0000e-05 Eh/bohr
RMS Gradient             TolRMSG  ....  8.0000e-06 Eh/bohr
Max. Displacement        TolMAXD  ....  2.0000e-04 bohr
RMS Displacement         TolRMSD  ....  1.0000e-04 bohr
Strict Convergence                ....  False
------------------------------------------------------------------------------
                        ORCA OPTIMIZATION COORDINATE SETUP
------------------------------------------------------------------------------

The optimization will be done in new redundant internal coordinates
Making redundant internal coordinates   ...  (new redundants) done
Evaluating the initial hessian          ...  (Is done on the fly) done
Evaluating the coordinates              ...  done
Calculating the B-matrix                .... done
Calculating the G-matrix                .... done
Diagonalizing the G-matrix              .... done
Small eigenvalue found = 4.240e-03
Small eigenvalue found = 1.383e-02
Small eigenvalue found = 1.870e-02
Small eigenvalue found = 2.699e-02
The first mode is                       ....   44
The number of degrees of freedom        ....   69

    -----------------------------------------------------------------
                    Redundant Internal Coordinates


    -----------------------------------------------------------------
         Definition                    Initial Value    d2E/dq (diagonal element)
    -----------------------------------------------------------------
      1. B(H   1,N   0)                  1.0192         0.000000   
      2. B(C   2,N   0)                  1.4444         0.000000   
      3. B(C   3,C   2)                  1.5451         0.000000   
      4. B(H   4,C   2)                  1.1041         0.000000   
      5. B(H   5,C   2)                  1.1036         0.000000   
      6. B(O   6,C   3)                  1.2207         0.000000   
      7. B(C   7,N   0)                  1.3798         0.000000   
      8. B(C   8,C   7)                  1.5377         0.000000   
      9. B(O   9,C   7)                  1.2223         0.000000   
     10. B(N  10,C   8)                  1.4746         0.000000   
     11. B(H  11,C   8)                  1.0979         0.000000   
     12. B(H  12,C   8)                  1.1027         0.000000   
     13. B(H  13,N  10)                  1.0348         0.000000   
     14. B(C  14,N  10)                  1.3349         0.000000   
     15. B(C  15,C  14)                  1.5521         0.000000   
     16. B(O  16,C  14)                  1.2441         0.000000   
     17. B(H  17,C  15)                  1.1003         0.000000   
     18. B(H  18,C  15)                  1.1008         0.000000   
     19. B(O  19,C   3)                  1.3374         0.000000   
     20. B(H  20,O  19)                  0.9785         0.000000   
     21. B(N  21,C  15)                  1.4985         0.000000   
     22. B(H  22,N  21)                  1.1077         0.000000   
     23. B(H  23,N  21)                  1.0295         0.000000   
     24. B(H  24,N  21)                  1.0289         0.000000   
     25. A(H   1,N   0,C   2)          117.3681         0.000000   
     26. A(C   2,N   0,C   7)          117.1171         0.000000   
     27. A(H   1,N   0,C   7)          118.7421         0.000000   
     28. A(C   3,C   2,H   5)          110.0128         0.000000   
     29. A(C   3,C   2,H   4)          108.5705         0.000000   
     30. A(N   0,C   2,H   4)          109.1562         0.000000   
     31. A(N   0,C   2,C   3)          110.1429         0.000000   
     32. A(N   0,C   2,H   5)          110.5386         0.000000   
     33. A(H   4,C   2,H   5)          108.3702         0.000000   
     34. A(O   6,C   3,O  19)          119.9007         0.000000   
     35. A(C   2,C   3,O  19)          116.7589         0.000000   
     36. A(C   2,C   3,O   6)          123.3394         0.000000   
     37. A(C   8,C   7,O   9)          121.8272         0.000000   
     38. A(N   0,C   7,O   9)          122.6274         0.000000   
     39. A(N   0,C   7,C   8)          114.5760         0.000000   
     40. A(C   7,C   8,H  11)          110.9307         0.000000   
     41. A(C   7,C   8,N  10)          102.3862         0.000000   
     42. A(H  11,C   8,H  12)          110.2702         0.000000   
     43. A(N  10,C   8,H  12)          110.0720         0.000000   
     44. A(C   7,C   8,H  12)          113.9428         0.000000   
     45. A(N  10,C   8,H  11)          108.8949         0.000000   
     46. A(H  13,N  10,C  14)          115.9614         0.000000   
     47. A(C   8,N  10,C  14)          121.9262         0.000000   
     48. A(C   8,N  10,H  13)          113.7078         0.000000   
     49. A(C  15,C  14,O  16)          116.3604         0.000000   
     50. A(N  10,C  14,O  16)          126.8639         0.000000   
     51. A(N  10,C  14,C  15)          116.7729         0.000000   
     52. A(H  17,C  15,H  18)          109.1498         0.000000   
     53. A(C  14,C  15,H  18)          111.5532         0.000000   
     54. A(C  14,C  15,H  17)          111.9274         0.000000   
     55. A(H  18,C  15,N  21)          111.4851         0.000000   
     56. A(H  17,C  15,N  21)          110.2074         0.000000   
     57. A(C  14,C  15,N  21)          102.4073         0.000000   
     58. A(C   3,O  19,H  20)          111.5301         0.000000   
     59. A(H  23,N  21,H  24)          108.7203         0.000000   
     60. A(H  22,N  21,H  24)          111.4672         0.000000   
     61. A(C  15,N  21,H  24)          114.3581         0.000000   
     62. A(H  22,N  21,H  23)          110.2234         0.000000   
     63. A(C  15,N  21,H  23)          113.7547         0.000000   
     64. A(C  15,N  21,H  22)           97.9609         0.000000   
     65. D(H   4,C   2,N   0,C   7)     51.4543         0.000000   
     66. D(H   5,C   2,N   0,C   7)    170.5600         0.000000   
     67. D(H   5,C   2,N   0,H   1)    -38.5798         0.000000   
     68. D(H   4,C   2,N   0,H   1)   -157.6855         0.000000   
     69. D(C   3,C   2,N   0,H   1)     83.2023         0.000000   
     70. D(C   3,C   2,N   0,C   7)    -67.6579         0.000000   
     71. D(O   6,C   3,C   2,H   4)   -124.4795         0.000000   
     72. D(O  19,C   3,C   2,H   5)    -63.2862         0.000000   
     73. D(O  19,C   3,C   2,H   4)     55.1512         0.000000   
     74. D(O   6,C   3,C   2,H   5)    117.0831         0.000000   
     75. D(O  19,C   3,C   2,N   0)    174.6201         0.000000   
     76. D(O   6,C   3,C   2,N   0)     -5.0106         0.000000   
     77. D(O   9,C   7,N   0,H   1)   -173.5132         0.000000   
     78. D(C   8,C   7,N   0,C   2)    145.8464         0.000000   
     79. D(C   8,C   7,N   0,H   1)     -4.6020         0.000000   
     80. D(O   9,C   7,N   0,C   2)    -23.0648         0.000000   
     81. D(H  12,C   8,C   7,O   9)   -160.9760         0.000000   
     82. D(H  12,C   8,C   7,N   0)     30.0144         0.000000   
     83. D(H  11,C   8,C   7,O   9)    -35.8287         0.000000   
     84. D(N  10,C   8,C   7,O   9)     80.2095         0.000000   
     85. D(N  10,C   8,C   7,N   0)    -88.8002         0.000000   
     86. D(H  11,C   8,C   7,N   0)    155.1616         0.000000   
     87. D(C  14,N  10,C   8,H  12)    134.5540         0.000000   
     88. D(C  14,N  10,C   8,H  11)     13.5615         0.000000   
     89. D(C  14,N  10,C   8,C   7)   -103.9386         0.000000   
     90. D(H  13,N  10,C   8,H  12)    -78.6273         0.000000   
     91. D(H  13,N  10,C   8,H  11)    160.3802         0.000000   
     92. D(H  13,N  10,C   8,C   7)     42.8801         0.000000   
     93. D(O  16,C  14,N  10,C   8)    -19.3983         0.000000   
     94. D(C  15,C  14,N  10,H  13)     15.1105         0.000000   
     95. D(C  15,C  14,N  10,C   8)    161.2380         0.000000   
     96. D(O  16,C  14,N  10,H  13)   -165.5259         0.000000   
     97. D(N  21,C  15,C  14,O  16)      3.9388         0.000000   
     98. D(N  21,C  15,C  14,N  10)   -176.6294         0.000000   
     99. D(H  18,C  15,C  14,O  16)    123.2864         0.000000   
    100. D(H  18,C  15,C  14,N  10)    -57.2818         0.000000   
    101. D(H  17,C  15,C  14,O  16)   -114.0839         0.000000   
    102. D(H  17,C  15,C  14,N  10)     65.3479         0.000000   
    103. D(H  20,O  19,C   3,O   6)    178.8437         0.000000   
    104. D(H  20,O  19,C   3,C   2)     -0.8005         0.000000   
    105. D(H  24,N  21,C  15,H  18)    118.7441         0.000000   
    106. D(H  24,N  21,C  15,H  17)     -2.6241         0.000000   
    107. D(H  24,N  21,C  15,C  14)   -121.8606         0.000000   
    108. D(H  23,N  21,C  15,H  18)     -7.0005         0.000000   
    109. D(H  23,N  21,C  15,H  17)   -128.3688         0.000000   
    110. D(H  23,N  21,C  15,C  14)    112.3947         0.000000   
    111. D(H  22,N  21,C  15,H  18)   -123.2897         0.000000   
    112. D(H  22,N  21,C  15,H  17)    115.3421         0.000000   
    113. D(H  22,N  21,C  15,C  14)     -3.8944         0.000000   
    -----------------------------------------------------------------

Number of atoms                         .... 25
Number of degrees of freedom            .... 113

         *************************************************************
         *                GEOMETRY OPTIMIZATION CYCLE   1            *
         *************************************************************
---------------------------------
CARTESIAN COORDINATES (ANGSTROEM)
---------------------------------
  N     -2.461978    0.100418    1.842945
  H     -2.971336   -0.024151    0.969039
  C     -2.624272   -0.915543    2.856700
  C     -1.673259   -2.101174    2.578830
  H     -2.373066   -0.486895    3.842700
  H     -3.669383   -1.268759    2.887055
  O     -0.972488   -2.179848    1.582438
  C     -1.261288    0.779924    1.820054
  C     -0.779802    1.180482    0.415674
  O     -0.536636    0.870737    2.800194
  N      0.000000    0.000000    0.000000
  H     -0.110761    2.049728    0.463511
  H     -1.596671    1.366125   -0.301432
  H     -0.453013   -0.900876    0.232548
  C      1.334938    0.000000    0.000000
  C      2.034091   -1.385629   -0.015390
  O      2.081309    0.995380    0.000000
  H      1.839069   -1.933925   -0.949238
  H      1.722182   -2.005492    0.839186
  O     -1.634029   -3.070248    3.499707
  H     -2.228022   -2.874723    4.252292
  N      3.483470   -1.015959    0.074767
  H      3.363849    0.084560    0.035244
  H      3.928038   -1.294022    0.960715
  H      4.058617   -1.360470   -0.705692

----------------------------
CARTESIAN COORDINATES (A.U.)
----------------------------
  NO LB      ZA    FRAG     MASS         X           Y           Z
   0 N     7.0000    0    14.007   -4.652464    0.189763    3.482661
   1 H     1.0000    0     1.008   -5.615011   -0.045639    1.831218
   2 C     6.0000    0    12.011   -4.959155   -1.730126    5.398381
   3 C     6.0000    0    12.011   -3.162001   -3.970643    4.873282
   4 H     1.0000    0     1.008   -4.484445   -0.920098    7.261651
   5 H     1.0000    0     1.008   -6.934129   -2.397607    5.455743
   6 O     8.0000    0    15.999   -1.837736   -4.119316    2.990374
   7 C     6.0000    0    12.011   -2.383489    1.473843    3.439404
   8 C     6.0000    0    12.011   -1.473612    2.230788    0.785510
   9 O     8.0000    0    15.999   -1.014095    1.645454    5.291600
  10 N     7.0000    0    14.007    0.000000    0.000000    0.000000
  11 H     1.0000    0     1.008   -0.209308    3.873425    0.875909
  12 H     1.0000    0     1.008   -3.017271    2.581602   -0.569624
  13 H     1.0000    0     1.008   -0.856071   -1.702409    0.439452
  14 C     6.0000    0    12.011    2.522667    0.000000    0.000000
  15 C     6.0000    0    12.011    3.843875   -2.618459   -0.029083
  16 O     8.0000    0    15.999    3.933104    1.880996    0.000000
  17 H     1.0000    0     1.008    3.475337   -3.654589   -1.793800
  18 H     1.0000    0     1.008    3.254452   -3.789831    1.585832
  19 O     8.0000    0    15.999   -3.087867   -5.801928    6.613488
  20 H     1.0000    0     1.008   -4.210351   -5.432439    8.035667
  21 N     7.0000    0    14.007    6.582804   -1.919884    0.141289
  22 H     1.0000    0     1.008    6.356753    0.159795    0.066602
  23 H     1.0000    0     1.008    7.422916   -2.445347    1.815488
  24 H     1.0000    0     1.008    7.669675   -2.570916   -1.333565

--------------------------------
INTERNAL COORDINATES (ANGSTROEM)
--------------------------------
 N      0   0   0     0.000000000000     0.00000000     0.00000000
 H      1   0   0     1.019153916129     0.00000000     0.00000000
 C      1   2   0     1.444373669097   117.36806711     0.00000000
 C      3   1   2     1.545107870419   110.14290550    83.20226576
 H      3   1   2     1.104101246417   109.15619699   202.31448034
 H      3   1   2     1.103603176419   110.53859079   321.42017177
 O      4   3   1     1.220682845944   123.33938924   354.98940129
 C      1   2   3     1.379822045779   118.74214183   150.37506074
 C      8   1   2     1.537712152504   114.57603245   355.39803165
 O      8   1   2     1.222310084092   122.62739060   186.48679124
 N      9   8   1     1.474589361756   102.38616997   271.19981034
 H      9   8   1     1.097949382607   110.93068024   155.16160676
 H      9   8   1     1.102714515115   113.94279616    30.01438645
 H     11   9   8     1.034831830709   113.70780301    42.88006885
 C     11   9   8     1.334938000000   121.92620355   256.06138272
 C     15  11   9     1.552101638151   116.77292371   161.23804912
 O     15  11   9     1.244126606918   126.86385549   340.60169856
 H     16  15  11     1.100333663578   111.92737209    65.34791804
 H     16  15  11     1.100825827652   111.55315227   302.71819632
 O      4   3   1     1.337407140517   116.75893235   174.62012921
 H     20   4   3     0.978489597236   111.53011439   359.19953206
 N     16  15  11     1.498493803521   102.40731757   183.37063176
 H     22  16  15     1.107706333164    97.96086545   356.10561387
 H     22  16  15     1.029496768959   113.75467744   112.39474159
 H     22  16  15     1.028881991003   114.35811388   238.13939992

---------------------------
INTERNAL COORDINATES (A.U.)
---------------------------
 N      0   0   0     0.000000000000     0.00000000     0.00000000
 H      1   0   0     1.925921789797     0.00000000     0.00000000
 C      1   2   0     2.729470669641   117.36806711     0.00000000
 C      3   1   2     2.919830722458   110.14290550    83.20226576
 H      3   1   2     2.086448979850   109.15619699   202.31448034
 H      3   1   2     2.085507763957   110.53859079   321.42017177
 O      4   3   1     2.306756275209   123.33938924   354.98940129
 C      1   2   3     2.607485780069   118.74214183   150.37506074
 C      8   1   2     2.905854841036   114.57603245   355.39803165
 O      8   1   2     2.309831309664   122.62739060   186.48679124
 N      9   8   1     2.786570053713   102.38616997   271.19981034
 H      9   8   1     2.074823642034   110.93068024   155.16160676
 H      9   8   1     2.083828437468   113.94279616    30.01438645
 H     11   9   8     1.955548754705   113.70780301    42.88006885
 C     11   9   8     2.522667225765   121.92620355   256.06138272
 C     15  11   9     2.933047028115   116.77292371   161.23804912
 O     15  11   9     2.351058562999   126.86385549   340.60169856
 H     16  15  11     2.079329280098   111.92737209    65.34791804
 H     16  15  11     2.080259335410   111.55315227   302.71819632
 O      4   3   1     2.527333225127   116.75893235   174.62012921
 H     20   4   3     1.849077363667   111.53011439   359.19953206
 N     16  15  11     2.831742902032   102.40731757   183.37063176
 H     22  16  15     2.093261606490    97.96086545   356.10561387
 H     22  16  15     1.945466949089   113.75467744   112.39474159
 H     22  16  15     1.944305187120   114.35811388   238.13939992

---------------------
BASIS SET INFORMATION
---------------------
There are 4 groups of distinct atoms

 Group   1 Type N   : 11s6p2d1f contracted to 5s3p2d1f pattern {62111/411/11/1}
 Group   2 Type H   : 5s2p1d contracted to 3s2p1d pattern {311/11/1}
 Group   3 Type C   : 11s6p2d1f contracted to 5s3p2d1f pattern {62111/411/11/1}
 Group   4 Type O   : 11s6p2d1f contracted to 5s3p2d1f pattern {62111/411/11/1}

Atom   0N    basis set group =>   1
Atom   1H    basis set group =>   2
Atom   2C    basis set group =>   3
Atom   3C    basis set group =>   3
Atom   4H    basis set group =>   2
Atom   5H    basis set group =>   2
Atom   6O    basis set group =>   4
Atom   7C    basis set group =>   3
Atom   8C    basis set group =>   3
Atom   9O    basis set group =>   4
Atom  10N    basis set group =>   1
Atom  11H    basis set group =>   2
Atom  12H    basis set group =>   2
Atom  13H    basis set group =>   2
Atom  14C    basis set group =>   3
Atom  15C    basis set group =>   3
Atom  16O    basis set group =>   4
Atom  17H    basis set group =>   2
Atom  18H    basis set group =>   2
Atom  19O    basis set group =>   4
Atom  20H    basis set group =>   2
Atom  21N    basis set group =>   1
Atom  22H    basis set group =>   2
Atom  23H    basis set group =>   2
Atom  24H    basis set group =>   2
---------------------------------
AUXILIARY/J BASIS SET INFORMATION
---------------------------------
There are 4 groups of distinct atoms

 Group   1 Type N   : 12s5p4d2f1g contracted to 6s4p3d1f1g pattern {711111/2111/211/2/1}
 Group   2 Type H   : 5s2p1d contracted to 3s1p1d pattern {311/2/1}
 Group   3 Type C   : 12s5p4d2f1g contracted to 6s4p3d1f1g pattern {711111/2111/211/2/1}
 Group   4 Type O   : 12s5p4d2f1g contracted to 6s4p3d1f1g pattern {711111/2111/211/2/1}

Atom   0N    basis set group =>   1
Atom   1H    basis set group =>   2
Atom   2C    basis set group =>   3
Atom   3C    basis set group =>   3
Atom   4H    basis set group =>   2
Atom   5H    basis set group =>   2
Atom   6O    basis set group =>   4
Atom   7C    basis set group =>   3
Atom   8C    basis set group =>   3
Atom   9O    basis set group =>   4
Atom  10N    basis set group =>   1
Atom  11H    basis set group =>   2
Atom  12H    basis set group =>   2
Atom  13H    basis set group =>   2
Atom  14C    basis set group =>   3
Atom  15C    basis set group =>   3
Atom  16O    basis set group =>   4
Atom  17H    basis set group =>   2
Atom  18H    basis set group =>   2
Atom  19O    basis set group =>   4
Atom  20H    basis set group =>   2
Atom  21N    basis set group =>   1
Atom  22H    basis set group =>   2
Atom  23H    basis set group =>   2
Atom  24H    basis set group =>   2


           ************************************************************
           *        Program running with 8 parallel MPI-processes     *
           *              working on a common directory               *
           ************************************************************
------------------------------------------------------------------------------
                           ORCA GTO INTEGRAL CALCULATION
                           -- RI-GTO INTEGRALS CHOSEN --
------------------------------------------------------------------------------
------------------------------------------------------------------------------
                   ___                                                        
                  /   \      - P O W E R E D   B Y -                         
                 /     \                                                     
                 |  |  |   _    _      __       _____    __    __             
                 |  |  |  | |  | |    /  \     |  _  \  |  |  /  |          
                  \  \/   | |  | |   /    \    | | | |  |  | /  /          
                 / \  \   | |__| |  /  /\  \   | |_| |  |  |/  /          
                |  |  |   |  __  | /  /__\  \  |    /   |      \           
                |  |  |   | |  | | |   __   |  |    \   |  |\   \          
                \     /   | |  | | |  |  |  |  | |\  \  |  | \   \       
                 \___/    |_|  |_| |__|  |__|  |_| \__\ |__|  \__/        
                                                                              
                      - O R C A' S   B I G   F R I E N D -                    
                                      &                                       
                       - I N T E G R A L  F E E D E R -                       
                                                                              
 v1 FN, 2020, v2 2021                                                         
------------------------------------------------------------------------------


Reading SHARK input file GGG-H_tt_021_OptFreq.SHARKINP.tmp ... ok
----------------------
SHARK INTEGRAL PACKAGE
----------------------

Number of atoms                             ...     25
Number of basis functions                   ...    571
Number of shells                            ...    215
Maximum angular momentum                    ...      3
Integral batch strategy                     ... SHARK/LIBINT Hybrid
RI-J (if used) integral strategy            ... SPLIT-RIJ (Revised 2003 algorithm where possible)
Printlevel                                  ...      1
Contraction scheme used                     ... SEGMENTED contraction
Coulomb Range Separation                    ... NOT USED
Exchange Range Separation                   ... Long Range
   Mu parameter                             ...  0.300000
   Scaling (regular/separated)              ...  0.167000  0.833000
Finite Nucleus Model                        ... NOT USED
Auxiliary Coulomb fitting basis             ... AVAILABLE
   # of basis functions in Aux-J            ...    769
   # of shells in Aux-J                     ...    255
   Maximum angular momentum in Aux-J        ...      4
Auxiliary J/K fitting basis                 ... NOT available
Auxiliary Correlation fitting basis         ... NOT available
Auxiliary 'external' fitting basis          ... NOT available
Integral threshold                          ...     1.000000e-12
Primitive cut-off                           ...     1.000000e-14
Primitive pair pre-selection threshold      ...     1.000000e-14

Calculating pre-screening integrals         ... done (  0.0 sec) Dimension = 215
Organizing shell pair data                  ... done (  0.2 sec)
Shell pair information
Total number of shell pairs                 ...     23220
Shell pairs after pre-screening             ...     19044
Total number of primitive shell pairs       ...     63868
Primitive shell pairs kept                  ...     38381
          la=0 lb=0:   4184 shell pairs
          la=1 lb=0:   5360 shell pairs
          la=1 lb=1:   1762 shell pairs
          la=2 lb=0:   3004 shell pairs
          la=2 lb=1:   1978 shell pairs
          la=2 lb=2:    562 shell pairs
          la=3 lb=0:   1041 shell pairs
          la=3 lb=1:    690 shell pairs
          la=3 lb=2:    390 shell pairs
          la=3 lb=3:     73 shell pairs

Calculating one electron integrals          ... done (  0.0 sec)
Calculating RI/J V-Matrix + Cholesky decomp.... done (  0.3 sec)
Calculating Nuclear repulsion               ... done (  0.0 sec) ENN=    863.239154549219 Eh

SHARK setup successfully completed in   1.7 seconds

Maximum memory used throughout the entire GTOINT-calculation: 30.9 MB


           ************************************************************
           *        Program running with 8 parallel MPI-processes     *
           *              working on a common directory               *
           ************************************************************
-------------------------------------------------------------------------------
                                 ORCA SCF
-------------------------------------------------------------------------------

------------
SCF SETTINGS
------------
Hamiltonian:
 Density Functional     Method          .... DFT(GTOs)
 Exchange Functional    Exchange        .... WB97X-V
 Correlation Functional Correlation     .... WB97X-V
 Gradients option       PostSCFGGA      .... off
 Hybrid DFT is turned on
   Fraction HF Exchange ScalHFX         ....  0.167000
   Scaling of DF-GGA-X  ScalDFX         ....  0.000000
   Scaling of DF-GGA-C  ScalDFC         ....  1.000000
   Scaling of DF-LDA-C  ScalLDAC        ....  1.000000
   Perturbative correction              ....  0.000000
   Density functional embedding theory  .... OFF
 Long-range corrected/Screened/Range-Separated Hybrid DFT is turned on
   Amount of maximum screened exact exchange              ....  0.833000
   Range separation parameter mu (erf(mu*r12)/r12)        ....  0.300000
 RI-approximation to the Coulomb term is turned on
   Number of AuxJ basis functions       .... 769
   RIJ-COSX (HFX calculated with COS-X)).... on


General Settings:
 Integral files         IntName         .... GGG-H_tt_021_OptFreq
 Hartree-Fock type      HFTyp           .... RHF
 Total Charge           Charge          ....    1
 Multiplicity           Mult            ....    1
 Number of Electrons    NEL             ....  100
 Basis Dimension        Dim             ....  571
 Nuclear Repulsion      ENuc            ....    863.2391545492 Eh

Convergence Acceleration:
 DIIS                   CNVDIIS         .... on
   Start iteration      DIISMaxIt       ....    12
   Startup error        DIISStart       ....  0.200000
   # of expansion vecs  DIISMaxEq       ....     5
   Bias factor          DIISBfac        ....   1.050
   Max. coefficient     DIISMaxC        ....  10.000
 Trust-Rad. Augm. Hess. CNVTRAH         .... auto
   Auto Start mean grad. ratio tolernc. ....  1.125000
   Auto Start start iteration           ....    20
   Auto Start num. interpolation iter.  ....    10
   Max. Number of Micro iterations      ....    16
   Max. Number of Macro iterations      .... Maxiter - #DIIS iter
   Number of Davidson start vectors     ....     2
   Converg. threshold I  (grad. norm)   ....   2.000e-06
   Converg. threshold II (energy diff.) ....   1.000e-09
   Grad. Scal. Fac. for Micro threshold ....   0.100
   Minimum threshold for Micro iter.    ....   0.010
   NR start threshold (gradient norm)   ....   0.001
   Initial trust radius                 ....   0.400
   Minimum AH scaling param. (alpha)    ....   1.000
   Maximum AH scaling param. (alpha)    .... 1000.000
   Orbital update algorithm             .... Taylor
   White noise on init. David. guess    .... on
   Maximum white noise                  ....   0.010
   Quad. conv. algorithm                .... NR
 SOSCF                  CNVSOSCF        .... on
   Start iteration      SOSCFMaxIt      ....   150
   Startup grad/error   SOSCFStart      ....  0.003300
 Level Shifting         CNVShift        .... on
   Level shift para.    LevelShift      ....    0.2500
   Turn off err/grad.   ShiftErr        ....    0.0010
 Zerner damping         CNVZerner       .... off
 Static damping         CNVDamp         .... on
   Fraction old density DampFac         ....    0.7000
   Max. Damping (<1)    DampMax         ....    0.9800
   Min. Damping (>=0)   DampMin         ....    0.0000
   Turn off err/grad.   DampErr         ....    0.1000
 Fernandez-Rico         CNVRico         .... off

SCF Procedure:
 Maximum # iterations   MaxIter         ....   125
 SCF integral mode      SCFMode         .... Direct
   Integral package                     .... SHARK and LIBINT hybrid scheme
 Reset frequency        DirectResetFreq ....    20
 Integral Threshold     Thresh          ....  1.000e-12 Eh
 Primitive CutOff       TCut            ....  1.000e-14 Eh

Convergence Tolerance:
 Convergence Check Mode ConvCheckMode   .... Total+1el-Energy
 Convergence forced     ConvForced      .... 0
 Energy Change          TolE            ....  1.000e-09 Eh
 1-El. energy change                    ....  1.000e-06 Eh
 Orbital Gradient       TolG            ....  2.000e-06
 Orbital Rotation angle TolX            ....  2.000e-06
 DIIS Error             TolErr          ....  1.000e-08


Diagonalization of the overlap matrix:
Smallest eigenvalue                        ... 1.731e-04
Time for diagonalization                   ...    0.055 sec
Threshold for overlap eigenvalues          ... 1.000e-08
Number of eigenvalues below threshold      ... 0
Time for construction of square roots      ...    0.272 sec
Total time needed                          ...    0.335 sec

Time for model grid setup =    0.294 sec

------------------------------
INITIAL GUESS: MODEL POTENTIAL
------------------------------
Loading Hartree-Fock densities                     ... done
Calculating cut-offs                               ... done
Initializing the effective Hamiltonian             ... done
Setting up the integral package (SHARK)            ... done
Starting the Coulomb interaction                   ... done (   0.4 sec)
Reading the grid                                   ... done
Mapping shells                                     ... done
Starting the XC term evaluation                    ... done (   0.1 sec)
  promolecular density results
     # of electrons  =    100.993343200
     EX              =    -58.969684667
     EC              =     -4.268087139
     EX+EC           =    -63.237771806
Transforming the Hamiltonian                       ... done (   0.0 sec)
Diagonalizing the Hamiltonian                      ... done (   0.0 sec)
Back transforming the eigenvectors                 ... done (   0.0 sec)
Now organizing SCF variables                       ... done
                      ------------------
                      INITIAL GUESS DONE (   1.0 sec)
                      ------------------
-------------------
DFT GRID GENERATION
-------------------

General Integration Accuracy     IntAcc      ... 4.959
Radial Grid Type                 RadialGrid  ... OptM3 with GC (2021)
Angular Grid (max. ang.)         AngularGrid ... 6 (Lebedev-590)
Angular grid pruning method      GridPruning ... 4 (adaptive)
Weight generation scheme         WeightScheme... Becke
Basis function cutoff            BFCut       ... 1.0000e-12
Integration weight cutoff        WCut        ... 1.0000e-14
Angular grids for H and He will be reduced by one unit
Partially contracted basis set               ... off
Rotationally invariant grid construction     ... off

Total number of grid points                  ...   289200
Total number of batches                      ...     4532
Average number of points per batch           ...       63
Average number of grid points per atom       ...    11568
Time for grid setup =    3.577 sec

--------------------
COSX GRID GENERATION
--------------------

GRIDX 1
-------
General Integration Accuracy     IntAcc      ... 4.020
Radial Grid Type                 RadialGrid  ... OptM3 with GC (2021)
Angular Grid (max. ang.)         AngularGrid ... 2 (Lebedev-110)
Angular grid pruning method      GridPruning ... 4 (adaptive)
Weight generation scheme         WeightScheme... Becke
Basis function cutoff            BFCut       ... 1.0000e-12
Integration weight cutoff        WCut        ... 1.0000e-14
Angular grids for H and He will be reduced by one unit
Partially contracted basis set               ... on
Rotationally invariant grid construction     ... off

Total number of grid points                  ...    32205
Total number of batches                      ...      516
Average number of points per batch           ...       62
Average number of grid points per atom       ...     1288
UseSFitting                                  ... on

GRIDX 2
-------
General Integration Accuracy     IntAcc      ... 4.338
Radial Grid Type                 RadialGrid  ... OptM3 with GC (2021)
Angular Grid (max. ang.)         AngularGrid ... 3 (Lebedev-194)
Angular grid pruning method      GridPruning ... 4 (adaptive)
Weight generation scheme         WeightScheme... Becke
Basis function cutoff            BFCut       ... 1.0000e-12
Integration weight cutoff        WCut        ... 1.0000e-14
Angular grids for H and He will be reduced by one unit
Partially contracted basis set               ... on
Rotationally invariant grid construction     ... off

Total number of grid points                  ...    70622
Total number of batches                      ...     1117
Average number of points per batch           ...       63
Average number of grid points per atom       ...     2825
UseSFitting                                  ... on

GRIDX 3
-------
General Integration Accuracy     IntAcc      ... 4.871
Radial Grid Type                 RadialGrid  ... OptM3 with GC (2021)
Angular Grid (max. ang.)         AngularGrid ... 4 (Lebedev-302)
Angular grid pruning method      GridPruning ... 4 (adaptive)
Weight generation scheme         WeightScheme... Becke
Basis function cutoff            BFCut       ... 1.0000e-12
Integration weight cutoff        WCut        ... 1.0000e-14
Angular grids for H and He will be reduced by one unit
Partially contracted basis set               ... on
Rotationally invariant grid construction     ... off

Total number of grid points                  ...   133784
Total number of batches                      ...     2104
Average number of points per batch           ...       63
Average number of grid points per atom       ...     5351
UseSFitting                                  ... on

Time for X-Grid setup             =    2.398 sec

--------------
SCF ITERATIONS
--------------
ITER       Energy         Delta-E        Max-DP      RMS-DP      [F,P]     Damp
               ***  Starting incremental Fock matrix formation  ***
  0   -701.1551263733   0.000000000000 0.10640340  0.00054058  0.3427510 0.7000
  1   -701.2011747963  -0.046048423027 0.09492357  0.00049715  0.2343475 0.7000
                               ***Turning on DIIS***
  2   -701.2285783495  -0.027403553151 0.07286958  0.00038929  0.1626606 0.7000
  3   -701.2466491160  -0.018070766557 0.05548110  0.00030933  0.1123150 0.7000
  4   -701.2593142161  -0.012665100106 0.13865627  0.00080853  0.0774941 0.0000
                      *** Initiating the SOSCF procedure ***
                           *** Shutting down DIIS ***
                      *** Re-Reading the Fockian *** 
                      *** Removing any level shift *** 
ITER      Energy       Delta-E        Grad      Rot      Max-DP    RMS-DP
  5   -701.28984806  -0.0305338456  0.001356  0.001356  0.007453  0.000077
               *** Restarting incremental Fock matrix formation ***
  6   -701.28998179  -0.0001337316  0.000870  0.001913  0.003804  0.000045
  7   -701.29001963  -0.0000378414  0.000522  0.001764  0.002462  0.000032
  8   -701.29002757  -0.0000079321  0.000321  0.000458  0.000776  0.000010
  9   -701.29002989  -0.0000023264  0.000092  0.000084  0.000436  0.000005
 10   -701.29003005  -0.0000001585  0.000026  0.000069  0.000138  0.000002
 11   -701.29003018  -0.0000001239  0.000012  0.000035  0.000018  0.000000
 12   -701.29003018  -0.0000000040  0.000003  0.000006  0.000020  0.000000
 13   -701.29003018  -0.0000000019  0.000002  0.000007  0.000008  0.000000
 14   -701.29003018  -0.0000000003  0.000002  0.000002  0.000002  0.000000
                  ***Gradient check signals convergence***
              ***Rediagonalizing the Fockian in SOSCF/NRSCF***

               *****************************************************
               *                     SUCCESS                       *
               *           SCF CONVERGED AFTER  15 CYCLES          *
               *****************************************************

Old exchange energy                            =    -27.827902531 Eh
New exchange energy                            =    -27.827902149 Eh
Exchange energy change after final integration =      0.000000382 Eh
Total energy after final integration           =   -701.290029800 Eh
Final COS-X integration done in                =    31.391 sec

----------------
TOTAL SCF ENERGY
----------------

Total Energy       :         -701.29002980 Eh          -19083.07188 eV

Components:
Nuclear Repulsion  :          863.23915455 Eh           23489.93160 eV
Electronic Energy  :        -1564.52918435 Eh          -42573.00348 eV
One Electron Energy:        -2655.46038458 Eh          -72258.75063 eV
Two Electron Energy:         1090.93120023 Eh           29685.74715 eV
Max COSX asymmetry :            0.00000055 Eh               0.00001 eV

Virial components:
Potential Energy   :        -1399.24143144 Eh          -38075.29506 eV
Kinetic Energy     :          697.95140164 Eh           18992.22318 eV
Virial Ratio       :            2.00478347


DFT components:
N(Alpha)           :       49.999998256430 electrons
N(Beta)            :       49.999998256430 electrons
N(Total)           :       99.999996512861 electrons
E(X)               :      -60.041623028661 Eh       
E(C)               :       -4.265727940499 Eh       
E(XC)              :      -64.307350969160 Eh       
DFET-embed. en.    :        0.000000000000 Eh       

---------------
SCF CONVERGENCE
---------------

  Last Energy change         ...   -1.7030e-10  Tolerance :   1.0000e-09
  Last MAX-Density change    ...    1.3323e-15  Tolerance :   1.0000e-08
  Last RMS-Density change    ...    1.2528e-17  Tolerance :   1.0000e-09
  Last Orbital Gradient      ...    2.8451e-07  Tolerance :   2.0000e-06
  Last Orbital Rotation      ...    7.8227e-07  Tolerance :   2.0000e-06

             **** THE GBW FILE WAS UPDATED (GGG-H_tt_021_OptFreq.gbw) ****
             **** DENSITY GGG-H_tt_021_OptFreq.scfp WAS UPDATED ****
             **** ENERGY FILE WAS UPDATED (GGG-H_tt_021_OptFreq.en.tmp) ****
             **** THE GBW FILE WAS UPDATED (GGG-H_tt_021_OptFreq.gbw) ****
             **** DENSITY GGG-H_tt_021_OptFreq.scfp WAS UPDATED ****
----------------
ORBITAL ENERGIES
----------------

  NO   OCC          E(Eh)            E(eV) 
   0   2.0000     -19.399901      -527.8982 
   1   2.0000     -19.362613      -526.8835 
   2   2.0000     -19.343687      -526.3685 
   3   2.0000     -19.314018      -525.5612 
   4   2.0000     -14.687788      -399.6750 
   5   2.0000     -14.597372      -397.2147 
   6   2.0000     -14.573724      -396.5712 
   7   2.0000     -10.552458      -287.1470 
   8   2.0000     -10.551367      -287.1173 
   9   2.0000     -10.512034      -286.0470 
  10   2.0000     -10.511092      -286.0214 
  11   2.0000     -10.462946      -284.7112 
  12   2.0000     -10.457629      -284.5666 
  13   2.0000      -1.375672       -37.4339 
  14   2.0000      -1.355266       -36.8787 
  15   2.0000      -1.307276       -35.5728 
  16   2.0000      -1.287826       -35.0435 
  17   2.0000      -1.279594       -34.8195 
  18   2.0000      -1.221551       -33.2401 
  19   2.0000      -1.192970       -32.4624 
  20   2.0000      -1.053623       -28.6705 
  21   2.0000      -1.014561       -27.6076 
  22   2.0000      -0.972642       -26.4669 
  23   2.0000      -0.882058       -24.0020 
  24   2.0000      -0.873499       -23.7691 
  25   2.0000      -0.864799       -23.5324 
  26   2.0000      -0.854582       -23.2544 
  27   2.0000      -0.846547       -23.0357 
  28   2.0000      -0.806028       -21.9331 
  29   2.0000      -0.786955       -21.4141 
  30   2.0000      -0.764636       -20.8068 
  31   2.0000      -0.754813       -20.5395 
  32   2.0000      -0.746191       -20.3049 
  33   2.0000      -0.729089       -19.8395 
  34   2.0000      -0.717753       -19.5310 
  35   2.0000      -0.711964       -19.3735 
  36   2.0000      -0.702829       -19.1249 
  37   2.0000      -0.670511       -18.2455 
  38   2.0000      -0.665025       -18.0963 
  39   2.0000      -0.660014       -17.9599 
  40   2.0000      -0.642490       -17.4831 
  41   2.0000      -0.634349       -17.2615 
  42   2.0000      -0.629745       -17.1362 
  43   2.0000      -0.611607       -16.6427 
  44   2.0000      -0.568065       -15.4578 
  45   2.0000      -0.559682       -15.2297 
  46   2.0000      -0.544609       -14.8196 
  47   2.0000      -0.532279       -14.4841 
  48   2.0000      -0.503502       -13.7010 
  49   2.0000      -0.487789       -13.2734 
  50   0.0000      -0.077763        -2.1160 
  51   0.0000      -0.070373        -1.9150 
  52   0.0000      -0.044299        -1.2054 
  53   0.0000      -0.032097        -0.8734 
  54   0.0000      -0.021188        -0.5766 
  55   0.0000      -0.012657        -0.3444 
  56   0.0000      -0.009879        -0.2688 
  57   0.0000       0.000220         0.0060 
  58   0.0000       0.032585         0.8867 
  59   0.0000       0.039602         1.0776 
  60   0.0000       0.044154         1.2015 
  61   0.0000       0.052082         1.4172 
  62   0.0000       0.063545         1.7292 
  63   0.0000       0.069390         1.8882 
  64   0.0000       0.077563         2.1106 
  65   0.0000       0.083220         2.2645 
  66   0.0000       0.096568         2.6277 
  67   0.0000       0.103484         2.8159 
  68   0.0000       0.110679         3.0117 
  69   0.0000       0.117583         3.1996 
  70   0.0000       0.132775         3.6130 
  71   0.0000       0.140454         3.8220 
  72   0.0000       0.145459         3.9581 
  73   0.0000       0.158706         4.3186 
  74   0.0000       0.165500         4.5035 
  75   0.0000       0.173280         4.7152 
  76   0.0000       0.187304         5.0968 
  77   0.0000       0.192297         5.2327 
  78   0.0000       0.204434         5.5629 
  79   0.0000       0.211029         5.7424 
  80   0.0000       0.214589         5.8393 
  81   0.0000       0.228837         6.2270 
  82   0.0000       0.242890         6.6094 
  83   0.0000       0.250783         6.8242 
  84   0.0000       0.266931         7.2636 
  85   0.0000       0.273880         7.4527 
  86   0.0000       0.280514         7.6332 
  87   0.0000       0.287080         7.8118 
  88   0.0000       0.292165         7.9502 
  89   0.0000       0.295578         8.0431 
  90   0.0000       0.302254         8.2247 
  91   0.0000       0.313260         8.5242 
  92   0.0000       0.319339         8.6897 
  93   0.0000       0.323023         8.7899 
  94   0.0000       0.332881         9.0582 
  95   0.0000       0.334975         9.1151 
  96   0.0000       0.342989         9.3332 
  97   0.0000       0.345161         9.3923 
  98   0.0000       0.351547         9.5661 
  99   0.0000       0.356761         9.7079 
 100   0.0000       0.361174         9.8281 
 101   0.0000       0.370195        10.0735 
 102   0.0000       0.376044        10.2327 
 103   0.0000       0.380571        10.3559 
 104   0.0000       0.389745        10.6055 
 105   0.0000       0.399100        10.8601 
 106   0.0000       0.405198        11.0260 
 107   0.0000       0.407537        11.0896 
 108   0.0000       0.423084        11.5127 
 109   0.0000       0.425267        11.5721 
 110   0.0000       0.436321        11.8729 
 111   0.0000       0.443240        12.0612 
 112   0.0000       0.452115        12.3027 
 113   0.0000       0.466898        12.7049 
 114   0.0000       0.473380        12.8813 
 115   0.0000       0.484569        13.1858 
 116   0.0000       0.490971        13.3600 
 117   0.0000       0.503090        13.6898 
 118   0.0000       0.518169        14.1001 
 119   0.0000       0.522237        14.2108 
 120   0.0000       0.527906        14.3650 
 121   0.0000       0.534874        14.5547 
 122   0.0000       0.550222        14.9723 
 123   0.0000       0.562067        15.2946 
 124   0.0000       0.570194        15.5158 
 125   0.0000       0.577181        15.7059 
 126   0.0000       0.589382        16.0379 
 127   0.0000       0.592286        16.1169 
 128   0.0000       0.615170        16.7396 
 129   0.0000       0.631675        17.1888 
 130   0.0000       0.637400        17.3445 
 131   0.0000       0.646491        17.5919 
 132   0.0000       0.658436        17.9170 
 133   0.0000       0.665720        18.1151 
 134   0.0000       0.676047        18.3962 
 135   0.0000       0.699330        19.0297 
 136   0.0000       0.706849        19.2343 
 137   0.0000       0.725262        19.7354 
 138   0.0000       0.737233        20.0611 
 139   0.0000       0.740729        20.1562 
 140   0.0000       0.755607        20.5611 
 141   0.0000       0.762810        20.7571 
 142   0.0000       0.766082        20.8462 
 143   0.0000       0.775840        21.1117 
 144   0.0000       0.785406        21.3720 
 145   0.0000       0.791230        21.5305 
 146   0.0000       0.806441        21.9444 
 147   0.0000       0.823168        22.3995 
 148   0.0000       0.840696        22.8765 
 149   0.0000       0.857255        23.3271 
 150   0.0000       0.862433        23.4680 
 151   0.0000       0.868687        23.6382 
 152   0.0000       0.879712        23.9382 
 153   0.0000       0.883673        24.0460 
 154   0.0000       0.889974        24.2174 
 155   0.0000       0.903149        24.5759 
 156   0.0000       0.910535        24.7769 
 157   0.0000       0.932786        25.3824 
 158   0.0000       0.938813        25.5464 
 159   0.0000       0.946375        25.7522 
 160   0.0000       0.954284        25.9674 
 161   0.0000       0.964269        26.2391 
 162   0.0000       0.970829        26.4176 
 163   0.0000       0.982862        26.7450 
 164   0.0000       0.998608        27.1735 
 165   0.0000       1.001255        27.2455 
 166   0.0000       1.010820        27.5058 
 167   0.0000       1.025930        27.9170 
 168   0.0000       1.031504        28.0686 
 169   0.0000       1.036648        28.2086 
 170   0.0000       1.052420        28.6378 
 171   0.0000       1.061934        28.8967 
 172   0.0000       1.065519        28.9943 
 173   0.0000       1.070179        29.1211 
 174   0.0000       1.077423        29.3182 
 175   0.0000       1.099375        29.9155 
 176   0.0000       1.101916        29.9847 
 177   0.0000       1.114180        30.3184 
 178   0.0000       1.140894        31.0453 
 179   0.0000       1.144929        31.1551 
 180   0.0000       1.160770        31.5861 
 181   0.0000       1.181853        32.1598 
 182   0.0000       1.184680        32.2368 
 183   0.0000       1.188649        32.3448 
 184   0.0000       1.198081        32.6014 
 185   0.0000       1.210802        32.9476 
 186   0.0000       1.229690        33.4616 
 187   0.0000       1.239982        33.7416 
 188   0.0000       1.246083        33.9077 
 189   0.0000       1.260528        34.3007 
 190   0.0000       1.262329        34.3497 
 191   0.0000       1.283487        34.9255 
 192   0.0000       1.293077        35.1864 
 193   0.0000       1.299491        35.3609 
 194   0.0000       1.315437        35.7949 
 195   0.0000       1.336605        36.3709 
 196   0.0000       1.351326        36.7714 
 197   0.0000       1.368320        37.2339 
 198   0.0000       1.371182        37.3118 
 199   0.0000       1.382117        37.6093 
 200   0.0000       1.392811        37.9003 
 201   0.0000       1.408916        38.3385 
 202   0.0000       1.418152        38.5899 
 203   0.0000       1.427494        38.8441 
 204   0.0000       1.440089        39.1868 
 205   0.0000       1.442938        39.2644 
 206   0.0000       1.455146        39.5965 
 207   0.0000       1.461326        39.7647 
 208   0.0000       1.470839        40.0236 
 209   0.0000       1.479431        40.2574 
 210   0.0000       1.482136        40.3310 
 211   0.0000       1.505262        40.9603 
 212   0.0000       1.518433        41.3187 
 213   0.0000       1.525032        41.4982 
 214   0.0000       1.533072        41.7170 
 215   0.0000       1.549993        42.1775 
 216   0.0000       1.555800        42.3355 
 217   0.0000       1.573180        42.8084 
 218   0.0000       1.588964        43.2379 
 219   0.0000       1.589766        43.2597 
 220   0.0000       1.606521        43.7156 
 221   0.0000       1.638068        44.5741 
 222   0.0000       1.657279        45.0969 
 223   0.0000       1.669511        45.4297 
 224   0.0000       1.678846        45.6837 
 225   0.0000       1.695035        46.1243 
 226   0.0000       1.707462        46.4624 
 227   0.0000       1.720969        46.8299 
 228   0.0000       1.726014        46.9672 
 229   0.0000       1.744346        47.4661 
 230   0.0000       1.757159        47.8147 
 231   0.0000       1.783866        48.5415 
 232   0.0000       1.799849        48.9764 
 233   0.0000       1.820700        49.5438 
 234   0.0000       1.844176        50.1826 
 235   0.0000       1.853777        50.4438 
 236   0.0000       1.866757        50.7970 
 237   0.0000       1.884069        51.2681 
 238   0.0000       1.908657        51.9372 
 239   0.0000       1.930944        52.5437 
 240   0.0000       1.944634        52.9162 
 241   0.0000       1.960937        53.3598 
 242   0.0000       1.968551        53.5670 
 243   0.0000       1.983864        53.9837 
 244   0.0000       1.997884        54.3652 
 245   0.0000       2.022954        55.0474 
 246   0.0000       2.025938        55.1286 
 247   0.0000       2.058550        56.0160 
 248   0.0000       2.065844        56.2145 
 249   0.0000       2.083462        56.6939 
 250   0.0000       2.110836        57.4388 
 251   0.0000       2.125917        57.8491 
 252   0.0000       2.159488        58.7627 
 253   0.0000       2.183663        59.4205 
 254   0.0000       2.196284        59.7639 
 255   0.0000       2.205466        60.0138 
 256   0.0000       2.218804        60.3767 
 257   0.0000       2.244971        61.0888 
 258   0.0000       2.275542        61.9206 
 259   0.0000       2.284676        62.1692 
 260   0.0000       2.297111        62.5076 
 261   0.0000       2.313391        62.9506 
 262   0.0000       2.330166        63.4070 
 263   0.0000       2.333407        63.4952 
 264   0.0000       2.358668        64.1826 
 265   0.0000       2.370453        64.5033 
 266   0.0000       2.406659        65.4885 
 267   0.0000       2.432765        66.1989 
 268   0.0000       2.449986        66.6675 
 269   0.0000       2.453428        66.7612 
 270   0.0000       2.483873        67.5896 
 271   0.0000       2.507908        68.2436 
 272   0.0000       2.515508        68.4505 
 273   0.0000       2.535766        69.0017 
 274   0.0000       2.553694        69.4896 
 275   0.0000       2.557454        69.5919 
 276   0.0000       2.575415        70.0806 
 277   0.0000       2.583463        70.2996 
 278   0.0000       2.608334        70.9764 
 279   0.0000       2.611633        71.0661 
 280   0.0000       2.620623        71.3108 
 281   0.0000       2.634769        71.6957 
 282   0.0000       2.670335        72.6635 
 283   0.0000       2.677011        72.8452 
 284   0.0000       2.692451        73.2653 
 285   0.0000       2.697924        73.4143 
 286   0.0000       2.699852        73.4667 
 287   0.0000       2.721931        74.0675 
 288   0.0000       2.745502        74.7089 
 289   0.0000       2.754117        74.9433 
 290   0.0000       2.766657        75.2846 
 291   0.0000       2.778929        75.6185 
 292   0.0000       2.784291        75.7644 
 293   0.0000       2.787055        75.8396 
 294   0.0000       2.797117        76.1134 
 295   0.0000       2.813974        76.5721 
 296   0.0000       2.844787        77.4106 
 297   0.0000       2.855081        77.6907 
 298   0.0000       2.860166        77.8291 
 299   0.0000       2.871755        78.1444 
 300   0.0000       2.881778        78.4172 
 301   0.0000       2.897621        78.8483 
 302   0.0000       2.902067        78.9693 
 303   0.0000       2.905096        79.0517 
 304   0.0000       2.917520        79.3898 
 305   0.0000       2.934900        79.8627 
 306   0.0000       2.944954        80.1363 
 307   0.0000       2.962028        80.6009 
 308   0.0000       2.967707        80.7554 
 309   0.0000       2.971711        80.8644 
 310   0.0000       2.983733        81.1915 
 311   0.0000       2.989516        81.3489 
 312   0.0000       3.003647        81.7334 
 313   0.0000       3.019202        82.1567 
 314   0.0000       3.026855        82.3649 
 315   0.0000       3.040014        82.7230 
 316   0.0000       3.054711        83.1229 
 317   0.0000       3.058876        83.2362 
 318   0.0000       3.066656        83.4479 
 319   0.0000       3.078498        83.7702 
 320   0.0000       3.092253        84.1445 
 321   0.0000       3.097138        84.2774 
 322   0.0000       3.111346        84.6640 
 323   0.0000       3.115924        84.7886 
 324   0.0000       3.132916        85.2510 
 325   0.0000       3.140098        85.4464 
 326   0.0000       3.142239        85.5047 
 327   0.0000       3.157169        85.9109 
 328   0.0000       3.160242        85.9945 
 329   0.0000       3.176808        86.4453 
 330   0.0000       3.186067        86.6973 
 331   0.0000       3.199154        87.0534 
 332   0.0000       3.207084        87.2692 
 333   0.0000       3.214608        87.4739 
 334   0.0000       3.233880        87.9984 
 335   0.0000       3.241922        88.2172 
 336   0.0000       3.247126        88.3588 
 337   0.0000       3.259062        88.6836 
 338   0.0000       3.262043        88.7647 
 339   0.0000       3.275132        89.1209 
 340   0.0000       3.296135        89.6924 
 341   0.0000       3.306452        89.9731 
 342   0.0000       3.308363        90.0251 
 343   0.0000       3.329693        90.6055 
 344   0.0000       3.333665        90.7136 
 345   0.0000       3.344562        91.0102 
 346   0.0000       3.361579        91.4732 
 347   0.0000       3.374449        91.8234 
 348   0.0000       3.386927        92.1630 
 349   0.0000       3.395086        92.3850 
 350   0.0000       3.402792        92.5947 
 351   0.0000       3.414797        92.9213 
 352   0.0000       3.419962        93.0619 
 353   0.0000       3.430578        93.3508 
 354   0.0000       3.432531        93.4039 
 355   0.0000       3.444298        93.7241 
 356   0.0000       3.460012        94.1517 
 357   0.0000       3.475567        94.5750 
 358   0.0000       3.498509        95.1993 
 359   0.0000       3.504529        95.3631 
 360   0.0000       3.511581        95.5550 
 361   0.0000       3.527407        95.9856 
 362   0.0000       3.534207        96.1707 
 363   0.0000       3.547636        96.5361 
 364   0.0000       3.558959        96.8442 
 365   0.0000       3.569787        97.1388 
 366   0.0000       3.576740        97.3281 
 367   0.0000       3.583896        97.5228 
 368   0.0000       3.593173        97.7752 
 369   0.0000       3.600103        97.9638 
 370   0.0000       3.612869        98.3112 
 371   0.0000       3.624323        98.6228 
 372   0.0000       3.646419        99.2241 
 373   0.0000       3.649833        99.3170 
 374   0.0000       3.667369        99.7942 
 375   0.0000       3.694617       100.5356 
 376   0.0000       3.697981       100.6272 
 377   0.0000       3.710920       100.9793 
 378   0.0000       3.729377       101.4815 
 379   0.0000       3.734969       101.6337 
 380   0.0000       3.749438       102.0274 
 381   0.0000       3.760912       102.3396 
 382   0.0000       3.780095       102.8616 
 383   0.0000       3.788667       103.0949 
 384   0.0000       3.790005       103.1313 
 385   0.0000       3.803307       103.4932 
 386   0.0000       3.812707       103.7490 
 387   0.0000       3.821786       103.9961 
 388   0.0000       3.826563       104.1261 
 389   0.0000       3.835479       104.3687 
 390   0.0000       3.854366       104.8826 
 391   0.0000       3.871406       105.3463 
 392   0.0000       3.879045       105.5542 
 393   0.0000       3.897053       106.0442 
 394   0.0000       3.910761       106.4172 
 395   0.0000       3.919424       106.6530 
 396   0.0000       3.943645       107.3120 
 397   0.0000       3.967205       107.9531 
 398   0.0000       3.979403       108.2851 
 399   0.0000       3.990388       108.5840 
 400   0.0000       4.000445       108.8576 
 401   0.0000       4.017016       109.3085 
 402   0.0000       4.021113       109.4201 
 403   0.0000       4.029069       109.6366 
 404   0.0000       4.046028       110.0980 
 405   0.0000       4.052049       110.2619 
 406   0.0000       4.072720       110.8244 
 407   0.0000       4.092655       111.3668 
 408   0.0000       4.117619       112.0461 
 409   0.0000       4.123441       112.2045 
 410   0.0000       4.145672       112.8095 
 411   0.0000       4.151706       112.9737 
 412   0.0000       4.170597       113.4877 
 413   0.0000       4.180315       113.7521 
 414   0.0000       4.183494       113.8387 
 415   0.0000       4.201599       114.3313 
 416   0.0000       4.208223       114.5116 
 417   0.0000       4.226649       115.0130 
 418   0.0000       4.233867       115.2094 
 419   0.0000       4.242980       115.4574 
 420   0.0000       4.253767       115.7509 
 421   0.0000       4.262450       115.9872 
 422   0.0000       4.287658       116.6731 
 423   0.0000       4.300920       117.0340 
 424   0.0000       4.312292       117.3434 
 425   0.0000       4.337382       118.0262 
 426   0.0000       4.357471       118.5728 
 427   0.0000       4.363158       118.7276 
 428   0.0000       4.382982       119.2670 
 429   0.0000       4.400225       119.7362 
 430   0.0000       4.410040       120.0033 
 431   0.0000       4.436582       120.7255 
 432   0.0000       4.466014       121.5264 
 433   0.0000       4.483534       122.0032 
 434   0.0000       4.490146       122.1831 
 435   0.0000       4.505406       122.5983 
 436   0.0000       4.512044       122.7790 
 437   0.0000       4.536919       123.4558 
 438   0.0000       4.551126       123.8424 
 439   0.0000       4.584278       124.7445 
 440   0.0000       4.614261       125.5604 
 441   0.0000       4.638971       126.2328 
 442   0.0000       4.659624       126.7948 
 443   0.0000       4.663826       126.9091 
 444   0.0000       4.676914       127.2653 
 445   0.0000       4.694388       127.7408 
 446   0.0000       4.708444       128.1233 
 447   0.0000       4.725905       128.5984 
 448   0.0000       4.734795       128.8403 
 449   0.0000       4.756757       129.4379 
 450   0.0000       4.762698       129.5996 
 451   0.0000       4.772701       129.8718 
 452   0.0000       4.781407       130.1087 
 453   0.0000       4.818239       131.1110 
 454   0.0000       4.848270       131.9281 
 455   0.0000       4.866942       132.4362 
 456   0.0000       4.879341       132.7736 
 457   0.0000       4.902417       133.4015 
 458   0.0000       4.934378       134.2713 
 459   0.0000       4.941996       134.4785 
 460   0.0000       4.972256       135.3020 
 461   0.0000       4.981792       135.5615 
 462   0.0000       4.986870       135.6996 
 463   0.0000       5.028118       136.8221 
 464   0.0000       5.045705       137.3006 
 465   0.0000       5.061631       137.7340 
 466   0.0000       5.069229       137.9407 
 467   0.0000       5.082104       138.2911 
 468   0.0000       5.104412       138.8981 
 469   0.0000       5.124035       139.4321 
 470   0.0000       5.138567       139.8275 
 471   0.0000       5.156514       140.3159 
 472   0.0000       5.165628       140.5639 
 473   0.0000       5.173090       140.7669 
 474   0.0000       5.187880       141.1694 
 475   0.0000       5.198756       141.4653 
 476   0.0000       5.210612       141.7880 
 477   0.0000       5.222013       142.0982 
 478   0.0000       5.244089       142.6989 
 479   0.0000       5.255759       143.0165 
 480   0.0000       5.275310       143.5485 
 481   0.0000       5.280240       143.6826 
 482   0.0000       5.292761       144.0234 
 483   0.0000       5.300496       144.2338 
 484   0.0000       5.312213       144.5527 
 485   0.0000       5.325469       144.9134 
 486   0.0000       5.346913       145.4969 
 487   0.0000       5.356242       145.7507 
 488   0.0000       5.366178       146.0211 
 489   0.0000       5.394496       146.7917 
 490   0.0000       5.446067       148.1950 
 491   0.0000       5.455037       148.4391 
 492   0.0000       5.472925       148.9258 
 493   0.0000       5.481790       149.1671 
 494   0.0000       5.515139       150.0746 
 495   0.0000       5.532773       150.5544 
 496   0.0000       5.537846       150.6925 
 497   0.0000       5.551043       151.0516 
 498   0.0000       5.559565       151.2835 
 499   0.0000       5.586606       152.0193 
 500   0.0000       5.592069       152.1679 
 501   0.0000       5.604896       152.5170 
 502   0.0000       5.634262       153.3161 
 503   0.0000       5.644839       153.6039 
 504   0.0000       5.671463       154.3284 
 505   0.0000       5.702286       155.1671 
 506   0.0000       5.748309       156.4194 
 507   0.0000       5.755129       156.6050 
 508   0.0000       5.771253       157.0438 
 509   0.0000       5.790258       157.5609 
 510   0.0000       5.814670       158.2252 
 511   0.0000       5.824429       158.4908 
 512   0.0000       5.838642       158.8775 
 513   0.0000       5.870937       159.7563 
 514   0.0000       5.882142       160.0612 
 515   0.0000       5.900083       160.5494 
 516   0.0000       5.911874       160.8703 
 517   0.0000       5.965070       162.3178 
 518   0.0000       5.987561       162.9298 
 519   0.0000       6.070895       165.1974 
 520   0.0000       6.113789       166.3647 
 521   0.0000       6.116874       166.4486 
 522   0.0000       6.177249       168.0915 
 523   0.0000       6.187075       168.3589 
 524   0.0000       6.275700       170.7705 
 525   0.0000       6.301637       171.4763 
 526   0.0000       6.319142       171.9526 
 527   0.0000       6.331440       172.2872 
 528   0.0000       6.338484       172.4789 
 529   0.0000       6.385206       173.7503 
 530   0.0000       6.415577       174.5767 
 531   0.0000       6.432438       175.0355 
 532   0.0000       6.452584       175.5837 
 533   0.0000       6.462988       175.8669 
 534   0.0000       6.518404       177.3748 
 535   0.0000       6.550801       178.2563 
 536   0.0000       6.569934       178.7770 
 537   0.0000       6.578653       179.0143 
 538   0.0000       6.599133       179.5715 
 539   0.0000       6.619545       180.1270 
 540   0.0000       6.709767       182.5820 
 541   0.0000       6.717034       182.7798 
 542   0.0000       6.735919       183.2937 
 543   0.0000       6.772377       184.2858 
 544   0.0000       6.784128       184.6055 
 545   0.0000       6.829421       185.8380 
 546   0.0000       6.835762       186.0105 
 547   0.0000       6.846323       186.2979 
 548   0.0000       6.865478       186.8192 
 549   0.0000       6.998353       190.4349 
 550   0.0000       7.010091       190.7543 
 551   0.0000       7.082306       192.7193 
 552   0.0000       7.131340       194.0536 
 553   0.0000       7.151684       194.6072 
 554   0.0000       7.170159       195.1099 
 555   0.0000       7.220381       196.4766 
 556   0.0000       7.368260       200.5006 
 557   0.0000       7.487877       203.7555 
 558   0.0000      23.123274       629.2163 
 559   0.0000      23.204845       631.4359 
 560   0.0000      23.227332       632.0478 
 561   0.0000      23.277053       633.4008 
 562   0.0000      23.327337       634.7691 
 563   0.0000      23.370875       635.9538 
 564   0.0000      32.677024       889.1870 
 565   0.0000      32.828715       893.3148 
 566   0.0000      32.854608       894.0193 
 567   0.0000      43.860787      1193.5127 
 568   0.0000      43.864495      1193.6136 
 569   0.0000      43.904127      1194.6920 
 570   0.0000      43.986292      1196.9279 

                    ********************************
                    * MULLIKEN POPULATION ANALYSIS *
                    ********************************

-----------------------
MULLIKEN ATOMIC CHARGES
-----------------------
   0 N :   -0.216306
   1 H :    0.186128
   2 C :   -0.140643
   3 C :    0.369551
   4 H :    0.149493
   5 H :    0.157541
   6 O :   -0.389823
   7 C :    0.217991
   8 C :   -0.070653
   9 O :   -0.335169
  10 N :   -0.176117
  11 H :    0.144047
  12 H :    0.137275
  13 H :    0.204353
  14 C :    0.279570
  15 C :   -0.160443
  16 O :   -0.349939
  17 H :    0.171419
  18 H :    0.172551
  19 O :   -0.213311
  20 H :    0.238796
  21 N :   -0.087662
  22 H :    0.237542
  23 H :    0.237873
  24 H :    0.235936
Sum of atomic charges:    1.0000000

--------------------------------
MULLIKEN REDUCED ORBITAL CHARGES
--------------------------------
  0 N s       :     3.407985  s :     3.407985
      pz      :     1.143890  p :     3.749809
      px      :     1.266016
      py      :     1.339904
      dz2     :     0.012255  d :     0.054861
      dxz     :     0.011418
      dyz     :     0.009568
      dx2y2   :     0.011113
      dxy     :     0.010505
      f0      :     0.000417  f :     0.003651
      f+1     :     0.000287
      f-1     :     0.000496
      f+2     :     0.000515
      f-2     :     0.000624
      f+3     :     0.000722
      f-3     :     0.000590
  1 H s       :     0.746691  s :     0.746691
      pz      :     0.022901  p :     0.061851
      px      :     0.019270
      py      :     0.019679
      dz2     :     0.001633  d :     0.005330
      dxz     :     0.001225
      dyz     :     0.001425
      dx2y2   :     0.000560
      dxy     :     0.000487
  2 C s       :     3.186908  s :     3.186908
      pz      :     0.948645  p :     2.837496
      px      :     1.037846
      py      :     0.851005
      dz2     :     0.032516  d :     0.108520
      dxz     :     0.013936
      dyz     :     0.015976
      dx2y2   :     0.021872
      dxy     :     0.024220
      f0      :     0.001075  f :     0.007719
      f+1     :     0.000649
      f-1     :     0.001678
      f+2     :     0.001151
      f-2     :     0.001370
      f+3     :     0.000865
      f-3     :     0.000931
  3 C s       :     3.093385  s :     3.093385
      pz      :     0.686092  p :     2.254630
      px      :     0.774032
      py      :     0.794506
      dz2     :     0.074072  d :     0.258160
      dxz     :     0.040362
      dyz     :     0.067327
      dx2y2   :     0.029690
      dxy     :     0.046710
      f0      :     0.004862  f :     0.024274
      f+1     :     0.002568
      f-1     :     0.003946
      f+2     :     0.003230
      f-2     :     0.005767
      f+3     :     0.001821
      f-3     :     0.002080
  4 H s       :     0.813663  s :     0.813663
      pz      :     0.014168  p :     0.034727
      px      :     0.009893
      py      :     0.010667
      dz2     :     0.000647  d :     0.002116
      dxz     :     0.000563
      dyz     :     0.000580
      dx2y2   :     0.000163
      dxy     :     0.000164
  5 H s       :     0.807488  s :     0.807488
      pz      :     0.007453  p :     0.032998
      px      :     0.016319
      py      :     0.009227
      dz2     :     0.000076  d :     0.001973
      dxz     :     0.000648
      dyz     :     0.000163
      dx2y2   :     0.000419
      dxy     :     0.000667
  6 O s       :     3.815426  s :     3.815426
      pz      :     1.382344  p :     4.543353
      px      :     1.460409
      py      :     1.700601
      dz2     :     0.008737  d :     0.029109
      dxz     :     0.007887
      dyz     :     0.006058
      dx2y2   :     0.003750
      dxy     :     0.002675
      f0      :     0.000461  f :     0.001936
      f+1     :     0.000453
      f-1     :     0.000245
      f+2     :     0.000326
      f-2     :     0.000306
      f+3     :     0.000078
      f-3     :     0.000067
[...]
     53       0.598717  -0.001420  -0.670898  -0.001838   0.002213   0.000491
     54       0.266626  -0.000187   0.233673   0.000501  -0.001048  -0.003507
     55       0.445165  -0.000279   0.404627   0.000562   0.003707  -0.003358
     56      -0.535808   0.000399  -0.461891  -0.000813  -0.006695   0.002348
     57       0.000016  -0.000032   0.000007   0.000004   0.000033  -0.000000
     58       0.000015  -0.000074   0.000030  -0.000007  -0.000066  -0.000239
     59      -0.000016  -0.000229  -0.000030   0.000007   0.000037   0.000241
     60       0.000123   0.001248   0.000181  -0.000039  -0.000486  -0.002501
     61      -0.000010   0.003396  -0.000051  -0.000036   0.000246   0.000279
     62      -0.000171  -0.000133  -0.000226   0.000009   0.000531   0.003702
     63       0.000713  -0.000001   0.000339  -0.000014   0.044855  -0.001327
     64      -0.000638  -0.000000   0.000423   0.000033  -0.037099   0.001502
     65      -0.000072   0.000000  -0.002473  -0.000017   0.011712   0.000264
     66       0.009815  -0.000012   0.000591   0.000301   0.015504   0.001415
     67       0.029190  -0.000040  -0.002194  -0.000611   0.030156  -0.008616
     68       0.002338   0.000003   0.000687   0.000102   0.004164  -0.000123
     69       0.000102  -0.000025  -0.001634   0.000009  -0.227857   0.004426
     70      -0.002309   0.000015  -0.007153   0.000100   0.275546  -0.005573
     71       0.005774  -0.000025   0.011264  -0.000092  -0.656722   0.013284
     72       0.002948  -0.000003  -0.001102  -0.000101  -0.384789   0.012713
     73      -0.001988   0.000008   0.005730   0.000130   0.208544  -0.007091
     74      -0.005704   0.000014   0.009057   0.000201   0.493838  -0.016456
                 72         73         74    
      0       0.000019   0.039524  -0.000080
      1       0.000009   0.006959   0.000136
      2       0.000040   0.061642  -0.000009
      3      -0.000363  -0.520522   0.000309
      4      -0.000111  -0.106100   0.000188
      5      -0.000610  -0.843934   0.000439
      6       0.000002   0.000274   0.000202
      7      -0.000001   0.001645   0.000007
      8       0.000009  -0.000409  -0.000399
      9       0.000032  -0.000082  -0.001890
     10      -0.000018   0.000114   0.001373
     11      -0.000005   0.000067   0.001765
     12       0.000006  -0.001296   0.001405
     13      -0.000003  -0.000525   0.001038
     14      -0.000047  -0.009062  -0.000209
     15      -0.000002  -0.005524  -0.000466
     16       0.000016  -0.004378  -0.000591
     17      -0.000010   0.000265  -0.001006
     18      -0.000019   0.000003   0.000694
     19       0.000008   0.000049  -0.000015
     20      -0.000001  -0.000078  -0.001199
     21       0.000021  -0.001042  -0.000104
     22      -0.000003  -0.000351  -0.000099
     23       0.000040   0.001399  -0.000016
     24       0.000012   0.000281   0.000022
     25       0.000000  -0.000078  -0.000023
     26       0.000004  -0.000012  -0.000000
     27      -0.000018  -0.000752   0.000026
     28       0.000008  -0.000142   0.000046
     29      -0.000024  -0.000739   0.000034
     30       0.000224  -0.000108   0.000172
     31       0.000442  -0.000201   0.000248
     32      -0.000066   0.000021  -0.000039
     33      -0.000044  -0.000574   0.000013
     34      -0.000126   0.000121  -0.000038
     35      -0.000001   0.000152  -0.000028
     36      -0.000079  -0.003146  -0.000037
     37       0.000032  -0.000215  -0.000028
     38      -0.000056  -0.001932   0.000002
     39      -0.002945   0.001678  -0.001811
     40      -0.005903   0.002023  -0.003589
     41       0.000602  -0.001143   0.000827
     42      -0.000101   0.000076  -0.000097
     43       0.000013  -0.000011  -0.000041
     44      -0.000077  -0.000004  -0.000003
     45      -0.000003   0.000003  -0.000009
     46       0.000025   0.000006   0.000002
     47      -0.001000  -0.000002  -0.000012
     48      -0.000039  -0.000033   0.000035
     49       0.000029  -0.000002   0.000030
     50       0.000007   0.000006   0.000004
     51       0.001965  -0.000071   0.000028
     52       0.005289  -0.000032   0.000043
     53       0.011494  -0.000048   0.000055
     54      -0.004318   0.000053  -0.000366
     55      -0.006107  -0.000034  -0.000086
     56       0.007427  -0.000059   0.000247
     57      -0.000002  -0.000028  -0.034916
     58      -0.000001   0.000086   0.012703
     59      -0.000018  -0.000009   0.050174
     60      -0.000076   0.000287   0.564245
     61       0.000076  -0.000352  -0.219458
     62       0.000227  -0.000408  -0.793432
     63       0.016926  -0.000052   0.000043
     64      -0.000021   0.000055  -0.000023
     65      -0.080221   0.000048  -0.000012
     66       0.002789   0.000141  -0.000117
     67       0.003854  -0.000427   0.000115
     68      -0.009739  -0.000044  -0.000001
     69       0.210363   0.000081  -0.000184
     70      -0.252306  -0.000056   0.000095
     71       0.569694   0.000088  -0.000270
     72      -0.444196   0.000589  -0.000334
     73       0.248390  -0.000322   0.000175
     74       0.548972  -0.000756   0.000405


-----------
IR SPECTRUM
-----------

 Mode   freq       eps      Int      T**2         TX        TY        TZ
       cm**-1   L/(mol*cm) km/mol    a.u.
----------------------------------------------------------------------------
  6:     19.54   0.001167    5.90  0.018638  ( 0.117869  0.028615 -0.062656)
  7:     41.45   0.002707   13.68  0.020382  (-0.013573 -0.065617 -0.126066)
  8:     60.21   0.001924    9.72  0.009972  ( 0.043243  0.081284 -0.038662)
  9:     80.32   0.005242   26.49  0.020369  (-0.010804 -0.016675  0.141330)
 10:     83.77   0.000276    1.39  0.001027  (-0.022812  0.020500 -0.009294)
 11:     98.56   0.002750   13.90  0.008706  ( 0.087280 -0.031718  0.009068)
 12:    139.29   0.002159   10.91  0.004837  ( 0.026158  0.063169 -0.012727)
 13:    191.53   0.001769    8.94  0.002882  ( 0.012580 -0.050507  0.013130)
 14:    257.72   0.002079   10.50  0.002517  ( 0.047134 -0.015640 -0.007118)
 15:    288.16   0.002506   12.67  0.002714  (-0.015403 -0.049368 -0.006315)
 16:    299.75   0.001230    6.22  0.001281  ( 0.014015 -0.028789 -0.015992)
 17:    347.21   0.004721   23.86  0.004243  ( 0.002915  0.057696 -0.030094)
 18:    355.95   0.015731   79.50  0.013791  (-0.101202  0.056480  0.018956)
 19:    413.39   0.018891   95.47  0.014261  ( 0.104613 -0.056439  0.011472)
 20:    471.76   0.002593   13.10  0.001715  ( 0.041251 -0.003648 -0.000227)
 21:    482.99   0.010206   51.58  0.006594  (-0.049194 -0.063806 -0.010136)
 22:    498.78   0.008861   44.78  0.005544  (-0.065605 -0.006197 -0.034659)
 23:    531.37   0.018131   91.63  0.010648  ( 0.091741 -0.047146 -0.003000)
 24:    580.54   0.002226   11.25  0.001196  ( 0.015266  0.029158  0.010639)
 25:    585.58   0.002247   11.36  0.001198  (-0.018365 -0.017024 -0.023883)
 26:    654.24   0.007910   39.97  0.003773  ( 0.054977 -0.017520 -0.021058)
 27:    665.41   0.014325   72.39  0.006718  ( 0.010603  0.009314  0.080741)
 28:    712.04   0.001711    8.65  0.000750  ( 0.004406 -0.002219 -0.026934)
 29:    754.36   0.010495   53.04  0.004342  (-0.005320  0.000468 -0.065674)
 30:    806.40   0.002608   13.18  0.001009  (-0.014560  0.014796  0.024048)
 31:    874.81   0.001846    9.33  0.000659  (-0.022686  0.005176 -0.010822)
 32:    886.29   0.001898    9.59  0.000668  (-0.016300  0.014879 -0.013467)
 33:    920.25   0.005038   25.46  0.001708  ( 0.024801 -0.023039  0.023716)
 34:    931.17   0.002314   11.69  0.000775  ( 0.002506 -0.005052  0.027270)
 35:   1004.41   0.000476    2.41  0.000148  (-0.009272  0.007555  0.002224)
 36:   1026.63   0.000702    3.55  0.000214  (-0.007532 -0.009567  0.008079)
 37:   1060.14   0.002131   10.77  0.000627  ( 0.024853  0.002226  0.002186)
 38:   1081.30   0.002881   14.56  0.000831  ( 0.019452 -0.021186  0.002038)
 39:   1113.08   0.008348   42.19  0.002341  ( 0.032695 -0.034083 -0.010484)
 40:   1119.21   0.013488   68.16  0.003761  (-0.041550  0.044631  0.006524)
 41:   1154.20   0.001369    6.92  0.000370  ( 0.009933 -0.013579  0.009336)
 42:   1209.38   0.001334    6.74  0.000344  ( 0.002746  0.006080 -0.017312)
 43:   1235.43   0.018755   94.78  0.004737  (-0.058044 -0.024500  0.027715)
 44:   1291.68   0.006181   31.24  0.001493  ( 0.005636  0.027776 -0.026269)
 45:   1304.58   0.013465   68.04  0.003221  ( 0.033637  0.029805 -0.034656)
 46:   1314.56   0.039072  197.45  0.009275  ( 0.000980  0.075951 -0.059208)
 47:   1324.47   0.002938   14.85  0.000692  (-0.011072  0.023615  0.003464)
 48:   1333.34   0.026598  134.41  0.006225  ( 0.007632 -0.048742  0.061572)
 49:   1373.57   0.000520    2.63  0.000118  (-0.010374  0.001835  0.002671)
 50:   1397.39   0.036239  183.14  0.008093  (-0.085509  0.027801  0.002848)
 51:   1425.80   0.023010  116.28  0.005036  (-0.004750  0.060984 -0.035979)
 52:   1442.34   0.060860  307.56  0.013168  (-0.112387 -0.022664 -0.004819)
 53:   1466.09   0.003944   19.93  0.000839  ( 0.006083 -0.002135 -0.028247)
 54:   1501.23   0.005722   28.92  0.001189  (-0.016754 -0.025064  0.016749)
 55:   1506.48   0.008512   43.01  0.001763  (-0.038238  0.017332 -0.000759)
 56:   1554.16   0.037892  191.49  0.007608  ( 0.069809  0.047336 -0.022238)
 57:   1634.68   0.025032  126.50  0.004779  (-0.062755  0.021317  0.019652)
 58:   1649.11   0.008448   42.69  0.001599  (-0.025145  0.028628 -0.012117)
 59:   1669.58   0.006112   30.89  0.001142  ( 0.013289 -0.007921 -0.030051)
 60:   1792.60   0.038193  193.01  0.006649  (-0.060142 -0.022035  0.050461)
 61:   1817.23   0.067869  342.98  0.011655  ( 0.079809  0.041983  0.059354)
 62:   1842.89   0.054419  275.01  0.009215  ( 0.064434  0.008948 -0.070592)
 63:   2902.91   0.075989  384.01  0.008169  ( 0.044232 -0.078727 -0.003788)
 64:   3101.61   0.001897    9.59  0.000191  ( 0.004457  0.011531 -0.006168)
 65:   3119.16   0.002383   12.04  0.000238  (-0.014136  0.005102 -0.003539)
 66:   3127.76   0.000892    4.51  0.000089  ( 0.000482  0.009025 -0.002704)
 67:   3153.68   0.000058    0.29  0.000006  (-0.001824 -0.001404  0.000630)
 68:   3191.17   0.001007    5.09  0.000099  ( 0.005362  0.001737 -0.008170)
 69:   3204.60   0.000183    0.93  0.000018  ( 0.001593  0.003657 -0.001397)
 70:   3516.52   0.022046  111.41  0.001956  (-0.038035  0.022236 -0.003916)
 71:   3557.62   0.031805  160.73  0.002790  (-0.034113 -0.036161  0.017845)
 72:   3578.65   0.020570  103.95  0.001794  (-0.010148 -0.000026  0.041118)
 73:   3674.63   0.009092   45.95  0.000772  (-0.020749 -0.003654 -0.018117)
 74:   3840.39   0.022174  112.06  0.001802  ( 0.018124  0.006393 -0.037848)

* The epsilon (eps) is given for a Dirac delta lineshape.
** The dipole moment derivative (T) already includes vibrational overlap.

The first frequency considered to be a vibration is 6
The total number of vibrations considered is 69


--------------------------
THERMOCHEMISTRY AT 298.15K
--------------------------

Temperature         ... 298.15 K
Pressure            ... 1.00 atm
Total Mass          ... 190.18 AMU

Throughout the following assumptions are being made:
  (1) The electronic state is orbitally nondegenerate
  (2) There are no thermally accessible electronically excited states
  (3) Hindered rotations indicated by low frequency modes are not
      treated as such but are treated as vibrations and this may
      cause some error
  (4) All equations used are the standard statistical mechanics
      equations for an ideal gas
  (5) All vibrations are strictly harmonic

freq.      19.54  E(vib)   ...       0.56 
freq.      41.45  E(vib)   ...       0.54 
freq.      60.21  E(vib)   ...       0.51 
freq.      80.32  E(vib)   ...       0.49 
freq.      83.77  E(vib)   ...       0.48 
freq.      98.56  E(vib)   ...       0.46 
freq.     139.29  E(vib)   ...       0.42 
freq.     191.53  E(vib)   ...       0.36 
freq.     257.72  E(vib)   ...       0.30 
freq.     288.16  E(vib)   ...       0.27 
freq.     299.75  E(vib)   ...       0.26 
freq.     347.21  E(vib)   ...       0.23 
freq.     355.95  E(vib)   ...       0.22 
freq.     413.39  E(vib)   ...       0.19 
freq.     471.76  E(vib)   ...       0.15 
freq.     482.99  E(vib)   ...       0.15 
freq.     498.78  E(vib)   ...       0.14 
freq.     531.37  E(vib)   ...       0.13 
freq.     580.54  E(vib)   ...       0.11 
freq.     585.58  E(vib)   ...       0.11 
freq.     654.24  E(vib)   ...       0.08 
freq.     665.41  E(vib)   ...       0.08 
freq.     712.04  E(vib)   ...       0.07 
freq.     754.36  E(vib)   ...       0.06 
freq.     806.40  E(vib)   ...       0.05 
freq.     874.81  E(vib)   ...       0.04 
freq.     886.29  E(vib)   ...       0.04 
freq.     920.25  E(vib)   ...       0.03 
freq.     931.17  E(vib)   ...       0.03 
freq.    1004.41  E(vib)   ...       0.02 
freq.    1026.63  E(vib)   ...       0.02 
freq.    1060.14  E(vib)   ...       0.02 
freq.    1081.30  E(vib)   ...       0.02 
freq.    1113.08  E(vib)   ...       0.01 
freq.    1119.21  E(vib)   ...       0.01 
freq.    1154.20  E(vib)   ...       0.01 
freq.    1209.38  E(vib)   ...       0.01 
freq.    1235.43  E(vib)   ...       0.01 
freq.    1291.68  E(vib)   ...       0.01 
freq.    1304.58  E(vib)   ...       0.01 
freq.    1314.56  E(vib)   ...       0.01 
freq.    1324.47  E(vib)   ...       0.01 
freq.    1333.34  E(vib)   ...       0.01 
freq.    1373.57  E(vib)   ...       0.01 
freq.    1397.39  E(vib)   ...       0.00 
freq.    1425.80  E(vib)   ...       0.00 
freq.    1442.34  E(vib)   ...       0.00 
freq.    1466.09  E(vib)   ...       0.00 
freq.    1501.23  E(vib)   ...       0.00 
freq.    1506.48  E(vib)   ...       0.00 
freq.    1554.16  E(vib)   ...       0.00 
freq.    1634.68  E(vib)   ...       0.00 
freq.    1649.11  E(vib)   ...       0.00 
freq.    1669.58  E(vib)   ...       0.00 
freq.    1792.60  E(vib)   ...       0.00 
freq.    1817.23  E(vib)   ...       0.00 
freq.    1842.89  E(vib)   ...       0.00 
freq.    2902.91  E(vib)   ...       0.00 
freq.    3101.61  E(vib)   ...       0.00 
freq.    3119.16  E(vib)   ...       0.00 
freq.    3127.76  E(vib)   ...       0.00 
freq.    3153.68  E(vib)   ...       0.00 
freq.    3191.17  E(vib)   ...       0.00 
freq.    3204.60  E(vib)   ...       0.00 
freq.    3516.52  E(vib)   ...       0.00 
freq.    3557.62  E(vib)   ...       0.00 
freq.    3578.65  E(vib)   ...       0.00 
freq.    3674.63  E(vib)   ...       0.00 
freq.    3840.39  E(vib)   ...       0.00 

------------
INNER ENERGY
------------

The inner energy is: U= E(el) + E(ZPE) + E(vib) + E(rot) + E(trans)
    E(el)   - is the total energy from the electronic structure calculation
              = E(kin-el) + E(nuc-el) + E(el-el) + E(nuc-nuc)
    E(ZPE)  - the the zero temperature vibrational energy from the frequency calculation
    E(vib)  - the the finite temperature correction to E(ZPE) due to population
              of excited vibrational states
    E(rot)  - is the rotational thermal energy
    E(trans)- is the translational thermal energy

Summary of contributions to the inner energy U:
Electronic energy                ...   -701.33725732 Eh
Zero point energy                ...      0.20878739 Eh     131.02 kcal/mol
Thermal vibrational correction   ...      0.01076303 Eh       6.75 kcal/mol
Thermal rotational correction    ...      0.00141627 Eh       0.89 kcal/mol
Thermal translational correction ...      0.00141627 Eh       0.89 kcal/mol
-----------------------------------------------------------------------
Total thermal energy                   -701.11487435 Eh


Summary of corrections to the electronic energy:
(perhaps to be used in another calculation)
Total thermal correction                  0.01359557 Eh       8.53 kcal/mol
Non-thermal (ZPE) correction              0.20878739 Eh     131.02 kcal/mol
-----------------------------------------------------------------------
Total correction                          0.22238296 Eh     139.55 kcal/mol


--------
ENTHALPY
--------

The enthalpy is H = U + kB*T
                kB is Boltzmann's constant
Total free energy                 ...   -701.11487435 Eh 
Thermal Enthalpy correction       ...      0.00094421 Eh       0.59 kcal/mol
-----------------------------------------------------------------------
Total Enthalpy                    ...   -701.11393014 Eh


Note: Only C1 symmetry has been detected, increase convergence thresholds 
      if your molecule has a higher symmetry. Symmetry factor of 1.0 is   
      used for the rotational entropy correction. 
 

Note: Rotational entropy computed according to Herzberg 
Infrared and Raman Spectra, Chapter V,1, Van Nostrand Reinhold, 1945 
Point Group:  C1, Symmetry Number:   1  
Rotational constants in cm-1:     0.039557     0.017361     0.013774 

Vibrational entropy computed according to the QRRHO of S. Grimme
Chem.Eur.J. 2012 18 9955


-------
ENTROPY
-------

The entropy contributions are T*S = T*(S(el)+S(vib)+S(rot)+S(trans))
     S(el)   - electronic entropy
     S(vib)  - vibrational entropy
     S(rot)  - rotational entropy
     S(trans)- translational entropy
The entropies will be listed as multiplied by the temperature to get
units of energy

Electronic entropy                ...      0.00000000 Eh      0.00 kcal/mol
Vibrational entropy               ...      0.01938160 Eh     12.16 kcal/mol
Rotational entropy                ...      0.01497220 Eh      9.40 kcal/mol
Translational entropy             ...      0.01978162 Eh     12.41 kcal/mol
-----------------------------------------------------------------------
Final entropy term                ...      0.05413542 Eh     33.97 kcal/mol

In case the symmetry of your molecule has not been determined correctly
or in case you have a reason to use a different symmetry number we print 
out the resulting rotational entropy values for sn=1,12 :
 --------------------------------------------------------
|  sn= 1 | S(rot)=       0.01497220 Eh      9.40 kcal/mol|
|  sn= 2 | S(rot)=       0.01431774 Eh      8.98 kcal/mol|
|  sn= 3 | S(rot)=       0.01393491 Eh      8.74 kcal/mol|
|  sn= 4 | S(rot)=       0.01366328 Eh      8.57 kcal/mol|
|  sn= 5 | S(rot)=       0.01345260 Eh      8.44 kcal/mol|
|  sn= 6 | S(rot)=       0.01328045 Eh      8.33 kcal/mol|
|  sn= 7 | S(rot)=       0.01313491 Eh      8.24 kcal/mol|
|  sn= 8 | S(rot)=       0.01300883 Eh      8.16 kcal/mol|
|  sn= 9 | S(rot)=       0.01289762 Eh      8.09 kcal/mol|
|  sn=10 | S(rot)=       0.01279814 Eh      8.03 kcal/mol|
|  sn=11 | S(rot)=       0.01270815 Eh      7.97 kcal/mol|
|  sn=12 | S(rot)=       0.01262600 Eh      7.92 kcal/mol|
 --------------------------------------------------------


-------------------
GIBBS FREE ENERGY
-------------------

The Gibbs free energy is G = H - T*S

Total enthalpy                    ...   -701.11393014 Eh 
Total entropy correction          ...     -0.05413542 Eh    -33.97 kcal/mol
-----------------------------------------------------------------------
Final Gibbs free energy         ...   -701.16806556 Eh

For completeness - the Gibbs free energy minus the electronic energy
G-E(el)                           ...      0.16919176 Eh    106.17 kcal/mol


Timings for individual modules:

Sum of individual times         ...     8892.142 sec (= 148.202 min)
GTO integral calculation        ...       29.364 sec (=   0.489 min)   0.3 %
SCF iterations                  ...     3051.985 sec (=  50.866 min)  34.3 %
SCF Gradient evaluation         ...      626.849 sec (=  10.447 min)   7.0 %
Geometry relaxation             ...        2.225 sec (=   0.037 min)   0.0 %
Analytical frequency calculation...     4686.817 sec (=  78.114 min)  52.7 %
CHELPG charge generation        ...      494.902 sec (=   8.248 min)   5.6 %
                             ****ORCA TERMINATED NORMALLY****
TOTAL RUN TIME: 0 days 2 hours 28 minutes 49 seconds 659 msec
