
Lmod is automatically replacing "intel/2020.1.217" with "gcc/10.3.0".


Due to MODULEPATH changes, the following have been reloaded:
  1) blis/0.8.1     2) flexiblas/3.0.4

The following have been reloaded with a version change:
  1) gcccore/.9.3.0 => gcccore/.10.3.0        3) openmpi/4.0.3 => openmpi/4.1.1
  2) libfabric/1.10.1 => libfabric/1.12.1     4) ucx/1.8.0 => ucx/1.9.0

To execute ORCA, run: 
   ${EBROOTORCA}/orca orca.inp > orca.out

                                 *****************
                                 * O   R   C   A *
                                 *****************

                                            #,                                       
                                            ###                                      
                                            ####                                     
                                            #####                                    
                                            ######                                   
                                           ########,                                 
                                     ,,################,,,,,                         
                               ,,#################################,,                 
                          ,,##########################################,,             
                       ,#########################################, ''#####,          
                    ,#############################################,,   '####,        
                  ,##################################################,,,,####,       
                ,###########''''           ''''###############################       
              ,#####''   ,,,,##########,,,,          '''####'''          '####       
            ,##' ,,,,###########################,,,                        '##       
           ' ,,###''''                  '''############,,,                           
         ,,##''                                '''############,,,,        ,,,,,,###''
      ,#''                                            '''#######################'''  
     '                                                          ''''####''''         
             ,#######,   #######,   ,#######,      ##                                
            ,#'     '#,  ##    ##  ,#'     '#,    #''#        ######   ,####,        
            ##       ##  ##   ,#'  ##            #'  '#       #        #'  '#        
            ##       ##  #######   ##           ,######,      #####,   #    #        
            '#,     ,#'  ##    ##  '#,     ,#' ,#      #,         ##   #,  ,#        
             '#######'   ##     ##  '#######'  #'      '#     #####' # '####'        



                  #######################################################
                  #                        -***-                        #
                  #          Department of theory and spectroscopy      #
                  #    Directorship and core code : Frank Neese         #
                  #        Max Planck Institute fuer Kohlenforschung    #
                  #                Kaiser Wilhelm Platz 1               #
                  #                 D-45470 Muelheim/Ruhr               #
                  #                      Germany                        #
                  #                                                     #
                  #                  All rights reserved                #
                  #                        -***-                        #
                  #######################################################


                         Program Version 5.0.2 -  RELEASE  -


 With contributions from (in alphabetic order):
   Daniel Aravena         : Magnetic Suceptibility
   Michael Atanasov       : Ab Initio Ligand Field Theory (pilot matlab implementation)
   Alexander A. Auer      : GIAO ZORA, VPT2 properties, NMR spectrum
   Ute Becker             : Parallelization
   Giovanni Bistoni       : ED, misc. LED, open-shell LED, HFLD
   Martin Brehm           : Molecular dynamics
   Dmytro Bykov           : SCF Hessian
   Vijay G. Chilkuri      : MRCI spin determinant printing, contributions to CSF-ICE
   Dipayan Datta          : RHF DLPNO-CCSD density
   Achintya Kumar Dutta   : EOM-CC, STEOM-CC
   Dmitry Ganyushin       : Spin-Orbit,Spin-Spin,Magnetic field MRCI
   Miquel Garcia          : C-PCM and meta-GGA Hessian, CC/C-PCM, Gaussian charge scheme
   Yang Guo               : DLPNO-NEVPT2, F12-NEVPT2, CIM, IAO-localization
   Andreas Hansen         : Spin unrestricted coupled pair/coupled cluster methods
   Benjamin Helmich-Paris : MC-RPA, TRAH-SCF, COSX integrals
   Lee Huntington         : MR-EOM, pCC
   Robert Izsak           : Overlap fitted RIJCOSX, COSX-SCS-MP3, EOM
   Marcus Kettner         : VPT2
   Christian Kollmar      : KDIIS, OOCD, Brueckner-CCSD(T), CCSD density, CASPT2, CASPT2-K
   Simone Kossmann        : Meta GGA functionals, TD-DFT gradient, OOMP2, MP2 Hessian
   Martin Krupicka        : Initial AUTO-CI
   Lucas Lang             : DCDCAS
   Marvin Lechner         : AUTO-CI (C++ implementation), FIC-MRCC
   Dagmar Lenk            : GEPOL surface, SMD
   Dimitrios Liakos       : Extrapolation schemes; Compound Job, initial MDCI parallelization
   Dimitrios Manganas     : Further ROCIS development; embedding schemes
   Dimitrios Pantazis     : SARC Basis sets
   Anastasios Papadopoulos: AUTO-CI, single reference methods and gradients
   Taras Petrenko         : DFT Hessian,TD-DFT gradient, ASA, ECA, R-Raman, ABS, FL, XAS/XES, NRVS
   Peter Pinski           : DLPNO-MP2, DLPNO-MP2 Gradient
   Christoph Reimann      : Effective Core Potentials
   Marius Retegan         : Local ZFS, SOC
   Christoph Riplinger    : Optimizer, TS searches, QM/MM, DLPNO-CCSD(T), (RO)-DLPNO pert. Triples
   Tobias Risthaus        : Range-separated hybrids, TD-DFT gradient, RPA, STAB
   Michael Roemelt        : Original ROCIS implementation
   Masaaki Saitow         : Open-shell DLPNO-CCSD energy and density
   Barbara Sandhoefer     : DKH picture change effects
   Avijit Sen             : IP-ROCIS
   Kantharuban Sivalingam : CASSCF convergence, NEVPT2, FIC-MRCI
   Bernardo de Souza      : ESD, SOC TD-DFT
   Georgi Stoychev        : AutoAux, RI-MP2 NMR, DLPNO-MP2 response
   Willem Van den Heuvel  : Paramagnetic NMR
   Boris Wezisla          : Elementary symmetry handling
   Frank Wennmohs         : Technical directorship


 We gratefully acknowledge several colleagues who have allowed us to
 interface, adapt or use parts of their codes:
   Stefan Grimme, W. Hujo, H. Kruse, P. Pracht,  : VdW corrections, initial TS optimization,
                  C. Bannwarth, S. Ehlert          DFT functionals, gCP, sTDA/sTD-DF
   Ed Valeev, F. Pavosevic, A. Kumar             : LibInt (2-el integral package), F12 methods
   Garnet Chan, S. Sharma, J. Yang, R. Olivares  : DMRG
   Ulf Ekstrom                                   : XCFun DFT Library
   Mihaly Kallay                                 : mrcc  (arbitrary order and MRCC methods)
   Jiri Pittner, Ondrej Demel                    : Mk-CCSD
   Frank Weinhold                                : gennbo (NPA and NBO analysis)
   Christopher J. Cramer and Donald G. Truhlar   : smd solvation model
   Lars Goerigk                                  : TD-DFT with DH, B97 family of functionals
   V. Asgeirsson, H. Jonsson                     : NEB implementation
   FAccTs GmbH                                   : IRC, NEB, NEB-TS, DLPNO-Multilevel, CI-OPT
                                                   MM, QMMM, 2- and 3-layer-ONIOM, Crystal-QMMM,
                                                   LR-CPCM, SF, NACMEs, symmetry and pop. for TD-DFT,
                                                   nearIR, NL-DFT gradient (VV10), updates on ESD,
                                                   ML-optimized integration grids
   S Lehtola, MJT Oliveira, MAL Marques          : LibXC Library
   Liviu Ungur et al                             : ANISO software


 Your calculation uses the libint2 library for the computation of 2-el integrals
 For citations please refer to: http://libint.valeyev.net

 Your ORCA version has been built with support for libXC version: 5.1.0
 For citations please refer to: https://tddft.org/programs/libxc/

 This ORCA versions uses:
   CBLAS   interface :  Fast vector & matrix operations
   LAPACKE interface :  Fast linear algebra routines
   SCALAPACK package :  Parallel linear algebra routines
   Shared memory     :  Shared parallel matrices
   BLAS/LAPACK       :  OpenBLAS 0.3.15  USE64BITINT DYNAMIC_ARCH NO_AFFINITY Zen SINGLE_THREADED
        Core in use  :  Zen
   Copyright (c) 2011-2014, The OpenBLAS Project


Your calculation utilizes the atom-pairwise dispersion correction
with the Becke-Johnson damping scheme (D3BJ)
Cite in your paper:
S.Grimme, S.Ehrlich, L.Goerigk, J Comput Chem, (2011), 32, 1456–1465 
S.Grimme, J.Antony, S.Ehrlich and H.Krieg, J.Chem.Phys., 132, (2010), 154104 
   

================================================================================

----- Orbital basis set information -----
Your calculation utilizes the basis: def2-TZVPP
   F. Weigend and R. Ahlrichs, Phys. Chem. Chem. Phys. 7, 3297 (2005).

----- AuxJ basis set information -----
Your calculation utilizes the auxiliary basis: def2/J
   F. Weigend, Phys. Chem. Chem. Phys. 8, 1057 (2006).

================================================================================
                                        WARNINGS
                       Please study these warnings very carefully!
================================================================================


WARNING: Geometry Optimization
  ===> : Switching off AutoStart
         For restart on a previous wavefunction, please use MOREAD

INFO   : the flag for use of the SHARK integral package has been found!

================================================================================
                                       INPUT FILE
================================================================================
NAME = GGG-H_tt_020_OptFreq.inp
|  1> # GGG-H_tt_020 (old 099)
|  2> ! wB97X-D3BJ Opt Freq def2-TZVPP def2/J RIJCOSX VeryTightSCF
|  3> ! PAL8 defgrid3 VeryTightOpt
|  4> 
|  5> %maxcore 4096
|  6> 
|  7> %geom
|  8>   MaxIter 300
|  9>   # MaxStep 0.1
| 10>   Calc_Hess true
| 11>   Recalc_Hess 10
| 12> end
| 13> 
| 14> %chelpg
| 15>   grid 0.1
| 16>   rmax 3.0
| 17> end
| 18> 
| 19> * xyz 1 1 
| 20>  N   -0.061259   +1.071507   +2.545125
| 21>  H   -0.105909   +0.072987   +2.354480
| 22>  C   +0.644423   +1.482490   +3.730990
| 23>  C   +1.957237   +0.729946   +3.880118
| 24>  H   +0.841646   +2.567324   +3.644485
| 25>  H   +0.058094   +1.337373   +4.658636
| 26>  O   +2.347190   -0.147244   +3.107242
| 27>  C   -0.295120   +1.952933   +1.509139
| 28>  C   -0.704937   +1.276323   +0.178860
| 29>  O   -0.198361   +3.161414   +1.617011
| 30>  N   +0.000000   +0.000000   +0.000000
| 31>  H   -0.451627   +1.983936   -0.624668
| 32>  H   -1.788466   +1.081177   +0.158795
| 33>  H   -0.521199   -0.873908   -0.064195
| 34>  C   +1.348364   +0.000000   +0.000000
| 35>  C   +2.096645   -1.347044   +0.098363
| 36>  O   +2.032417   +1.028208   +0.000000
| 37>  H   +2.307792   -1.762173   -0.900543
| 38>  H   +1.581418   -2.099409   +0.713023
| 39>  O   +2.625191   +1.099795   +4.966688
| 40>  H   +3.450011   +0.572828   +5.040048
| 41>  N   +3.385255   -0.952931   +0.748805
| 42>  H   +3.219261   -0.800094   +1.779037
| 43>  H   +4.171356   -1.592398   +0.574660
| 44>  H   +3.555955   +0.016840   +0.368017
| 45> *
| 46> 
| 47>                          ****END OF INPUT****
================================================================================

                       *****************************
                       * Geometry Optimization Run *
                       *****************************

Geometry optimization settings:
Update method            Update   .... BFGS
Choice of coordinates    CoordSys .... Z-matrix Internals
Initial Hessian          InHess   .... Almoef's Model

Convergence Tolerances:
Energy Change            TolE     ....  2.0000e-07 Eh
Max. Gradient            TolMAXG  ....  3.0000e-05 Eh/bohr
RMS Gradient             TolRMSG  ....  8.0000e-06 Eh/bohr
Max. Displacement        TolMAXD  ....  2.0000e-04 bohr
RMS Displacement         TolRMSD  ....  1.0000e-04 bohr
Strict Convergence                ....  False
------------------------------------------------------------------------------
                        ORCA OPTIMIZATION COORDINATE SETUP
------------------------------------------------------------------------------

The optimization will be done in new redundant internal coordinates
Making redundant internal coordinates   ...  (new redundants) done
Evaluating the initial hessian          ...  (Is done on the fly) done
Evaluating the coordinates              ...  done
Calculating the B-matrix                .... done
Calculating the G-matrix                .... done
Diagonalizing the G-matrix              .... done
Small eigenvalue found = 9.955e-03
Small eigenvalue found = 1.694e-02
Small eigenvalue found = 2.601e-02
The first mode is                       ....   45
The number of degrees of freedom        ....   69

    -----------------------------------------------------------------
                    Redundant Internal Coordinates


    -----------------------------------------------------------------
         Definition                    Initial Value    d2E/dq (diagonal element)
    -----------------------------------------------------------------
      1. B(H   1,N   0)                  1.0175         0.000000   
      2. B(C   2,N   0)                  1.4399         0.000000   
      3. B(C   3,C   2)                  1.5205         0.000000   
      4. B(H   4,C   2)                  1.1060         0.000000   
      5. B(H   5,C   2)                  1.1070         0.000000   
      6. B(O   6,C   3)                  1.2324         0.000000   
      7. B(C   7,N   0)                  1.3802         0.000000   
      8. B(C   8,C   7)                  1.5477         0.000000   
      9. B(O   9,C   7)                  1.2171         0.000000   
     10. B(N  10,C   8)                  1.4690         0.000000   
     11. B(H  11,C   8)                  1.1002         0.000000   
     12. B(H  12,C   8)                  1.1011         0.000000   
     13. B(H  13,N  10)                  1.0196         0.000000   
     14. B(C  14,N  10)                  1.3484         0.000000   
     15. B(C  15,C  14)                  1.5441         0.000000   
     16. B(O  16,C  14)                  1.2350         0.000000   
     17. B(H  17,C  15)                  1.1021         0.000000   
     18. B(H  18,C  15)                  1.0997         0.000000   
     19. B(O  19,C   3)                  1.3280         0.000000   
     20. B(H  20,O  19)                  0.9815         0.000000   
     21. B(N  21,C  15)                  1.4963         0.000000   
     22. B(H  22,H  20)                  3.5458         0.000000   
     23. B(H  22,N  21)                  1.0547         0.000000   
     24. B(H  23,N  21)                  1.0282         0.000000   
     25. B(H  24,N  21)                  1.0557         0.000000   
     26. A(H   1,N   0,C   2)          117.1239         0.000000   
     27. A(C   2,N   0,C   7)          121.2633         0.000000   
     28. A(H   1,N   0,C   7)          118.5959         0.000000   
     29. A(C   3,C   2,H   5)          108.0739         0.000000   
     30. A(C   3,C   2,H   4)          109.8255         0.000000   
     31. A(N   0,C   2,H   4)          107.6349         0.000000   
     32. A(N   0,C   2,C   3)          111.2637         0.000000   
     33. A(N   0,C   2,H   5)          113.1520         0.000000   
     34. A(H   4,C   2,H   5)          106.7730         0.000000   
     35. A(O   6,C   3,O  19)          123.5172         0.000000   
     36. A(C   2,C   3,O  19)          112.1278         0.000000   
     37. A(C   2,C   3,O   6)          124.3290         0.000000   
     38. A(C   8,C   7,O   9)          122.0925         0.000000   
     39. A(N   0,C   7,O   9)          123.6486         0.000000   
     40. A(N   0,C   7,C   8)          114.2580         0.000000   
     41. A(C   7,C   8,H  11)          106.5944         0.000000   
     42. A(C   7,C   8,N  10)          110.9417         0.000000   
     43. A(H  11,C   8,H  12)          109.1000         0.000000   
     44. A(N  10,C   8,H  12)          108.4216         0.000000   
     45. A(C   7,C   8,H  12)          110.7133         0.000000   
     46. A(N  10,C   8,H  11)          111.0625         0.000000   
     47. A(H  13,N  10,C  14)          120.7441         0.000000   
     48. A(C   8,N  10,C  14)          118.6775         0.000000   
     49. A(C   8,N  10,H  13)          120.4695         0.000000   
     50. A(C  15,C  14,O  16)          117.2525         0.000000   
     51. A(N  10,C  14,O  16)          123.6353         0.000000   
     52. A(N  10,C  14,C  15)          118.9875         0.000000   
     53. A(H  17,C  15,H  18)          109.7945         0.000000   
     54. A(C  14,C  15,H  18)          113.9173         0.000000   
     55. A(C  14,C  15,H  17)          111.3276         0.000000   
     56. A(H  18,C  15,N  21)          109.9207         0.000000   
     57. A(H  17,C  15,N  21)          109.1597         0.000000   
     58. A(C  14,C  15,N  21)          102.4308         0.000000   
     59. A(C   3,O  19,H  20)          109.5301         0.000000   
     60. A(H  23,N  21,H  24)          112.7417         0.000000   
     61. A(H  22,N  21,H  24)          104.1619         0.000000   
     62. A(C  15,N  21,H  24)          102.9675         0.000000   
     63. A(H  22,N  21,H  23)          112.0804         0.000000   
     64. A(C  15,N  21,H  23)          114.8967         0.000000   
     65. A(C  15,N  21,H  22)          109.1025         0.000000   
     66. D(H   4,C   2,N   0,C   7)      4.4847         0.000000   
     67. D(H   5,C   2,N   0,C   7)    122.2122         0.000000   
     68. D(H   5,C   2,N   0,H   1)    -77.7144         0.000000   
     69. D(H   4,C   2,N   0,H   1)    164.5581         0.000000   
     70. D(C   3,C   2,N   0,H   1)     44.1878         0.000000   
     71. D(C   3,C   2,N   0,C   7)   -115.8856         0.000000   
     72. D(O   6,C   3,C   2,H   4)   -121.1105         0.000000   
     73. D(O  19,C   3,C   2,H   5)    -55.4370         0.000000   
     74. D(O  19,C   3,C   2,H   4)     60.6887         0.000000   
     75. D(O   6,C   3,C   2,H   5)    122.7638         0.000000   
     76. D(O  19,C   3,C   2,N   0)    179.7577         0.000000   
     77. D(O   6,C   3,C   2,N   0)     -2.0415         0.000000   
     78. D(O   9,C   7,N   0,H   1)   -176.1036         0.000000   
     79. D(C   8,C   7,N   0,C   2)    164.0303         0.000000   
     80. D(C   8,C   7,N   0,H   1)      4.2412         0.000000   
     81. D(O   9,C   7,N   0,C   2)    -16.3145         0.000000   
     82. D(H  12,C   8,C   7,O   9)    -94.9147         0.000000   
     83. D(H  12,C   8,C   7,N   0)     84.7465         0.000000   
     84. D(H  11,C   8,C   7,O   9)     23.6219         0.000000   
     85. D(N  10,C   8,C   7,O   9)    144.6578         0.000000   
     86. D(N  10,C   8,C   7,N   0)    -35.6811         0.000000   
     87. D(H  11,C   8,C   7,N   0)   -156.7169         0.000000   
     88. D(C  14,N  10,C   8,H  12)   -179.6045         0.000000   
     89. D(C  14,N  10,C   8,H  11)     60.5373         0.000000   
     90. D(C  14,N  10,C   8,C   7)    -57.8266         0.000000   
     91. D(H  13,N  10,C   8,H  12)     -3.3698         0.000000   
     92. D(H  13,N  10,C   8,H  11)   -123.2280         0.000000   
     93. D(H  13,N  10,C   8,C   7)    118.4081         0.000000   
     94. D(O  16,C  14,N  10,C   8)     -7.9773         0.000000   
     95. D(C  15,C  14,N  10,H  13)     -8.3777         0.000000   
     96. D(C  15,C  14,N  10,C   8)    167.8463         0.000000   
     97. D(O  16,C  14,N  10,H  13)    175.7987         0.000000   
     98. D(N  21,C  15,C  14,O  16)     23.7085         0.000000   
     99. D(N  21,C  15,C  14,N  10)   -152.3806         0.000000   
    100. D(H  18,C  15,C  14,O  16)    142.3568         0.000000   
    101. D(H  18,C  15,C  14,N  10)    -33.7323         0.000000   
    102. D(H  17,C  15,C  14,O  16)    -92.8335         0.000000   
    103. D(H  17,C  15,C  14,N  10)     91.0775         0.000000   
    104. D(H  20,O  19,C   3,O   6)      0.0679         0.000000   
    105. D(H  20,O  19,C   3,C   2)    178.2858         0.000000   
    106. D(H  24,N  21,C  15,H  18)   -154.8517         0.000000   
    107. D(H  24,N  21,C  15,H  17)     84.6682         0.000000   
    108. D(H  24,N  21,C  15,C  14)    -33.4218         0.000000   
    109. D(H  23,N  21,C  15,H  18)     82.1776         0.000000   
    110. D(H  23,N  21,C  15,H  17)    -38.3025         0.000000   
    111. D(H  23,N  21,C  15,C  14)   -156.3925         0.000000   
    112. D(H  22,N  21,C  15,H  18)    -44.6427         0.000000   
    113. D(H  22,N  21,C  15,H  17)   -165.1227         0.000000   
    114. D(H  22,N  21,C  15,C  14)     76.7872         0.000000   
    -----------------------------------------------------------------

Number of atoms                         .... 25
Number of degrees of freedom            .... 114

         *************************************************************
         *                GEOMETRY OPTIMIZATION CYCLE   1            *
         *************************************************************
---------------------------------
CARTESIAN COORDINATES (ANGSTROEM)
---------------------------------
  N     -0.061259    1.071507    2.545125
  H     -0.105909    0.072987    2.354480
  C      0.644423    1.482490    3.730990
  C      1.957237    0.729946    3.880118
  H      0.841646    2.567324    3.644485
  H      0.058094    1.337373    4.658636
  O      2.347190   -0.147244    3.107242
  C     -0.295120    1.952933    1.509139
  C     -0.704937    1.276323    0.178860
  O     -0.198361    3.161414    1.617011
  N      0.000000    0.000000    0.000000
  H     -0.451627    1.983936   -0.624668
  H     -1.788466    1.081177    0.158795
  H     -0.521199   -0.873908   -0.064195
  C      1.348364    0.000000    0.000000
  C      2.096645   -1.347044    0.098363
  O      2.032417    1.028208    0.000000
  H      2.307792   -1.762173   -0.900543
  H      1.581418   -2.099409    0.713023
  O      2.625191    1.099795    4.966688
  H      3.450011    0.572828    5.040048
  N      3.385255   -0.952931    0.748805
  H      3.219261   -0.800094    1.779037
  H      4.171356   -1.592398    0.574660
  H      3.555955    0.016840    0.368017

----------------------------
CARTESIAN COORDINATES (A.U.)
----------------------------
  NO LB      ZA    FRAG     MASS         X           Y           Z
   0 N     7.0000    0    14.007   -0.115763    2.024855    4.809589
   1 H     1.0000    0     1.008   -0.200139    0.137925    4.449322
   2 C     6.0000    0    12.011    1.217783    2.801500    7.050549
   3 C     6.0000    0    12.011    3.698642    1.379398    7.332360
   4 H     1.0000    0     1.008    1.590480    4.851539    6.887079
   5 H     1.0000    0     1.008    0.109782    2.527269    8.803546
   6 O     8.0000    0    15.999    4.435546   -0.278251    5.871836
   7 C     6.0000    0    12.011   -0.557696    3.690509    2.851859
   8 C     6.0000    0    12.011   -1.332138    2.411901    0.337996
   9 O     8.0000    0    15.999   -0.374848    5.974207    3.055708
  10 N     7.0000    0    14.007    0.000000    0.000000    0.000000
  11 H     1.0000    0     1.008   -0.853451    3.749096   -1.180451
  12 H     1.0000    0     1.008   -3.379711    2.043128    0.300079
  13 H     1.0000    0     1.008   -0.984923   -1.651447   -0.121311
  14 C     6.0000    0    12.011    2.548039    0.000000    0.000000
  15 C     6.0000    0    12.011    3.962085   -2.545544    0.185879
  16 O     8.0000    0    15.999    3.840712    1.943032    0.000000
  17 H     1.0000    0     1.008    4.361095   -3.330024   -1.701780
  18 H     1.0000    0     1.008    2.988447   -3.967308    1.347418
  19 O     8.0000    0    15.999    4.960892    2.078311    9.385680
  20 H     1.0000    0     1.008    6.519576    1.082488    9.524310
  21 N     7.0000    0    14.007    6.397205   -1.800779    1.415036
  22 H     1.0000    0     1.008    6.083522   -1.511959    3.361893
  23 H     1.0000    0     1.008    7.882720   -3.009196    1.085950
  24 H     1.0000    0     1.008    6.719781    0.031823    0.695451

--------------------------------
INTERNAL COORDINATES (ANGSTROEM)
--------------------------------
 N      0   0   0     0.000000000000     0.00000000     0.00000000
 H      1   0   0     1.017536893152     0.00000000     0.00000000
 C      1   2   0     1.439850655324   117.12386999     0.00000000
 C      3   1   2     1.520540111577   111.26370703    44.18782150
 H      3   1   2     1.106003993804   107.63486628   164.55813607
 H      3   1   2     1.106963297154   113.15196186   282.28556496
 O      4   3   1     1.232421579527   124.32904924   357.95849936
 C      1   2   3     1.380170189865   118.59589249   160.62190133
 C      8   1   2     1.547705812947   114.25804632     4.24120626
 O      8   1   2     1.217138036472   123.64855972   183.89635957
 N      9   8   1     1.468988588757   110.94169463   324.31892104
 H      9   8   1     1.100245136619   106.59443710   203.28309508
 H      9   8   1     1.101144704107   110.71328277    84.74649464
 H     11   9   8     1.019551169922   120.46952684   118.40805585
 C     11   9   8     1.348364000000   118.67750962   302.17340446
 C     15  11   9     1.544061939388   118.98748140   167.84629060
 O     15  11   9     1.234965666759   123.63529033   352.02269448
 H     16  15  11     1.102147149471   111.32761048    91.07746325
 H     16  15  11     1.099690352033   113.91725992   326.26772988
 O      4   3   1     1.328000449479   112.12782098   179.75769695
 H     20   4   3     0.981531426440   109.53011493   178.28581836
 N     16  15  11     1.496300632972   102.43082380   207.61940572
 H     22  16  15     1.054652137166   109.10248801    76.78724396
 H     22  16  15     1.028201977879   114.89674982   203.60753307
 H     22  16  15     1.055743237433   102.96751722   326.57819370

---------------------------
INTERNAL COORDINATES (A.U.)
---------------------------
 N      0   0   0     0.000000000000     0.00000000     0.00000000
 H      1   0   0     1.922866059218     0.00000000     0.00000000
 C      1   2   0     2.720923412310   117.12386999     0.00000000
 C      3   1   2     2.873404386523   111.26370703    44.18782150
 H      3   1   2     2.090044651312   107.63486628   164.55813607
 H      3   1   2     2.091857471924   113.15196186   282.28556496
 O      4   3   1     2.328939266842   124.32904924   357.95849936
 C      1   2   3     2.608143677048   118.59589249   160.62190133
 C      8   1   2     2.924740122348   114.25804632     4.24120626
 O      8   1   2     2.300057556110   123.64855972   183.89635957
 N      9   8   1     2.775986126606   110.94169463   324.31892104
 H      9   8   1     2.079161988388   106.59443710   203.28309508
 H      9   8   1     2.080861924579   110.71328277    84.74649464
 H     11   9   8     1.926672490672   120.46952684   118.40805585
 C     11   9   8     2.548038688839   118.67750962   302.17340446
 C     15  11   9     2.917854199254   118.98748140   167.84629060
 O     15  11   9     2.333746894970   123.63529033   352.02269448
 H     16  15  11     2.082756271781   111.32761048    91.07746325
 H     16  15  11     2.078113597457   113.91725992   326.26772988
 O      4   3   1     2.509557155240   112.12782098   179.75769695
 H     20   4   3     1.854825587808   109.53011493   178.28581836
 N     16  15  11     2.827598410330   102.43082380   207.61940572
 H     22  16  15     1.993003705799   109.10248801    76.78724396
 H     22  16  15     1.943020148548   114.89674982   203.60753307
 H     22  16  15     1.995065586487   102.96751722   326.57819370

---------------------
BASIS SET INFORMATION
---------------------
There are 4 groups of distinct atoms

 Group   1 Type N   : 11s6p2d1f contracted to 5s3p2d1f pattern {62111/411/11/1}
 Group   2 Type H   : 5s2p1d contracted to 3s2p1d pattern {311/11/1}
 Group   3 Type C   : 11s6p2d1f contracted to 5s3p2d1f pattern {62111/411/11/1}
 Group   4 Type O   : 11s6p2d1f contracted to 5s3p2d1f pattern {62111/411/11/1}

Atom   0N    basis set group =>   1
Atom   1H    basis set group =>   2
Atom   2C    basis set group =>   3
Atom   3C    basis set group =>   3
Atom   4H    basis set group =>   2
Atom   5H    basis set group =>   2
Atom   6O    basis set group =>   4
Atom   7C    basis set group =>   3
Atom   8C    basis set group =>   3
Atom   9O    basis set group =>   4
Atom  10N    basis set group =>   1
Atom  11H    basis set group =>   2
Atom  12H    basis set group =>   2
Atom  13H    basis set group =>   2
Atom  14C    basis set group =>   3
Atom  15C    basis set group =>   3
Atom  16O    basis set group =>   4
Atom  17H    basis set group =>   2
Atom  18H    basis set group =>   2
Atom  19O    basis set group =>   4
Atom  20H    basis set group =>   2
Atom  21N    basis set group =>   1
Atom  22H    basis set group =>   2
Atom  23H    basis set group =>   2
Atom  24H    basis set group =>   2
---------------------------------
AUXILIARY/J BASIS SET INFORMATION
---------------------------------
There are 4 groups of distinct atoms

 Group   1 Type N   : 12s5p4d2f1g contracted to 6s4p3d1f1g pattern {711111/2111/211/2/1}
 Group   2 Type H   : 5s2p1d contracted to 3s1p1d pattern {311/2/1}
 Group   3 Type C   : 12s5p4d2f1g contracted to 6s4p3d1f1g pattern {711111/2111/211/2/1}
 Group   4 Type O   : 12s5p4d2f1g contracted to 6s4p3d1f1g pattern {711111/2111/211/2/1}

Atom   0N    basis set group =>   1
Atom   1H    basis set group =>   2
Atom   2C    basis set group =>   3
Atom   3C    basis set group =>   3
Atom   4H    basis set group =>   2
Atom   5H    basis set group =>   2
Atom   6O    basis set group =>   4
Atom   7C    basis set group =>   3
Atom   8C    basis set group =>   3
Atom   9O    basis set group =>   4
Atom  10N    basis set group =>   1
Atom  11H    basis set group =>   2
Atom  12H    basis set group =>   2
Atom  13H    basis set group =>   2
Atom  14C    basis set group =>   3
Atom  15C    basis set group =>   3
Atom  16O    basis set group =>   4
Atom  17H    basis set group =>   2
Atom  18H    basis set group =>   2
Atom  19O    basis set group =>   4
Atom  20H    basis set group =>   2
Atom  21N    basis set group =>   1
Atom  22H    basis set group =>   2
Atom  23H    basis set group =>   2
Atom  24H    basis set group =>   2


           ************************************************************
           *        Program running with 8 parallel MPI-processes     *
           *              working on a common directory               *
           ************************************************************
------------------------------------------------------------------------------
                           ORCA GTO INTEGRAL CALCULATION
                           -- RI-GTO INTEGRALS CHOSEN --
------------------------------------------------------------------------------
------------------------------------------------------------------------------
                   ___                                                        
                  /   \      - P O W E R E D   B Y -                         
                 /     \                                                     
                 |  |  |   _    _      __       _____    __    __             
                 |  |  |  | |  | |    /  \     |  _  \  |  |  /  |          
                  \  \/   | |  | |   /    \    | | | |  |  | /  /          
                 / \  \   | |__| |  /  /\  \   | |_| |  |  |/  /          
                |  |  |   |  __  | /  /__\  \  |    /   |      \           
                |  |  |   | |  | | |   __   |  |    \   |  |\   \          
                \     /   | |  | | |  |  |  |  | |\  \  |  | \   \       
                 \___/    |_|  |_| |__|  |__|  |_| \__\ |__|  \__/        
                                                                              
                      - O R C A' S   B I G   F R I E N D -                    
                                      &                                       
                       - I N T E G R A L  F E E D E R -                       
                                                                              
 v1 FN, 2020, v2 2021                                                         
------------------------------------------------------------------------------


Reading SHARK input file GGG-H_tt_020_OptFreq.SHARKINP.tmp ... ok
----------------------
SHARK INTEGRAL PACKAGE
----------------------

Number of atoms                             ...     25
Number of basis functions                   ...    571
Number of shells                            ...    215
Maximum angular momentum                    ...      3
Integral batch strategy                     ... SHARK/LIBINT Hybrid
RI-J (if used) integral strategy            ... SPLIT-RIJ (Revised 2003 algorithm where possible)
Printlevel                                  ...      1
Contraction scheme used                     ... SEGMENTED contraction
Coulomb Range Separation                    ... NOT USED
Exchange Range Separation                   ... Long Range
   Mu parameter                             ...  0.300000
   Scaling (regular/separated)              ...  0.167000  0.833000
Finite Nucleus Model                        ... NOT USED
Auxiliary Coulomb fitting basis             ... AVAILABLE
   # of basis functions in Aux-J            ...    769
   # of shells in Aux-J                     ...    255
   Maximum angular momentum in Aux-J        ...      4
Auxiliary J/K fitting basis                 ... NOT available
Auxiliary Correlation fitting basis         ... NOT available
Auxiliary 'external' fitting basis          ... NOT available
Integral threshold                          ...     1.000000e-12
Primitive cut-off                           ...     1.000000e-14
Primitive pair pre-selection threshold      ...     1.000000e-14

Calculating pre-screening integrals         ... done (  0.0 sec) Dimension = 215
Organizing shell pair data                  ... done (  0.2 sec)
Shell pair information
Total number of shell pairs                 ...     23220
Shell pairs after pre-screening             ...     19847
Total number of primitive shell pairs       ...     63868
Primitive shell pairs kept                  ...     39854
          la=0 lb=0:   4315 shell pairs
          la=1 lb=0:   5563 shell pairs
          la=1 lb=1:   1837 shell pairs
          la=2 lb=0:   3140 shell pairs
          la=2 lb=1:   2079 shell pairs
          la=2 lb=2:    598 shell pairs
          la=3 lb=0:   1084 shell pairs
          la=3 lb=1:    734 shell pairs
          la=3 lb=2:    416 shell pairs
          la=3 lb=3:     81 shell pairs

Calculating one electron integrals          ... done (  0.0 sec)
Calculating RI/J V-Matrix + Cholesky decomp.... done (  0.5 sec)
Calculating Nuclear repulsion               ... done (  0.0 sec) ENN=    884.119443729239 Eh

SHARK setup successfully completed in   2.1 seconds

Maximum memory used throughout the entire GTOINT-calculation: 31.6 MB


           ************************************************************
           *        Program running with 8 parallel MPI-processes     *
           *              working on a common directory               *
           ************************************************************
-------------------------------------------------------------------------------
                                 ORCA SCF
-------------------------------------------------------------------------------

------------
SCF SETTINGS
------------
Hamiltonian:
 Density Functional     Method          .... DFT(GTOs)
 Exchange Functional    Exchange        .... WB97X-V
 Correlation Functional Correlation     .... WB97X-V
 Gradients option       PostSCFGGA      .... off
 Hybrid DFT is turned on
   Fraction HF Exchange ScalHFX         ....  0.167000
   Scaling of DF-GGA-X  ScalDFX         ....  0.000000
   Scaling of DF-GGA-C  ScalDFC         ....  1.000000
   Scaling of DF-LDA-C  ScalLDAC        ....  1.000000
   Perturbative correction              ....  0.000000
   Density functional embedding theory  .... OFF
 Long-range corrected/Screened/Range-Separated Hybrid DFT is turned on
   Amount of maximum screened exact exchange              ....  0.833000
   Range separation parameter mu (erf(mu*r12)/r12)        ....  0.300000
 RI-approximation to the Coulomb term is turned on
   Number of AuxJ basis functions       .... 769
   RIJ-COSX (HFX calculated with COS-X)).... on


General Settings:
 Integral files         IntName         .... GGG-H_tt_020_OptFreq
 Hartree-Fock type      HFTyp           .... RHF
 Total Charge           Charge          ....    1
 Multiplicity           Mult            ....    1
 Number of Electrons    NEL             ....  100
 Basis Dimension        Dim             ....  571
 Nuclear Repulsion      ENuc            ....    884.1194437292 Eh

Convergence Acceleration:
 DIIS                   CNVDIIS         .... on
   Start iteration      DIISMaxIt       ....    12
   Startup error        DIISStart       ....  0.200000
   # of expansion vecs  DIISMaxEq       ....     5
   Bias factor          DIISBfac        ....   1.050
   Max. coefficient     DIISMaxC        ....  10.000
 Trust-Rad. Augm. Hess. CNVTRAH         .... auto
   Auto Start mean grad. ratio tolernc. ....  1.125000
   Auto Start start iteration           ....    20
   Auto Start num. interpolation iter.  ....    10
   Max. Number of Micro iterations      ....    16
   Max. Number of Macro iterations      .... Maxiter - #DIIS iter
   Number of Davidson start vectors     ....     2
   Converg. threshold I  (grad. norm)   ....   2.000e-06
   Converg. threshold II (energy diff.) ....   1.000e-09
   Grad. Scal. Fac. for Micro threshold ....   0.100
   Minimum threshold for Micro iter.    ....   0.010
   NR start threshold (gradient norm)   ....   0.001
   Initial trust radius                 ....   0.400
   Minimum AH scaling param. (alpha)    ....   1.000
   Maximum AH scaling param. (alpha)    .... 1000.000
   Orbital update algorithm             .... Taylor
   White noise on init. David. guess    .... on
   Maximum white noise                  ....   0.010
   Quad. conv. algorithm                .... NR
 SOSCF                  CNVSOSCF        .... on
   Start iteration      SOSCFMaxIt      ....   150
   Startup grad/error   SOSCFStart      ....  0.003300
 Level Shifting         CNVShift        .... on
   Level shift para.    LevelShift      ....    0.2500
   Turn off err/grad.   ShiftErr        ....    0.0010
 Zerner damping         CNVZerner       .... off
 Static damping         CNVDamp         .... on
   Fraction old density DampFac         ....    0.7000
   Max. Damping (<1)    DampMax         ....    0.9800
   Min. Damping (>=0)   DampMin         ....    0.0000
   Turn off err/grad.   DampErr         ....    0.1000
 Fernandez-Rico         CNVRico         .... off

SCF Procedure:
 Maximum # iterations   MaxIter         ....   125
 SCF integral mode      SCFMode         .... Direct
   Integral package                     .... SHARK and LIBINT hybrid scheme
 Reset frequency        DirectResetFreq ....    20
 Integral Threshold     Thresh          ....  1.000e-12 Eh
 Primitive CutOff       TCut            ....  1.000e-14 Eh

Convergence Tolerance:
 Convergence Check Mode ConvCheckMode   .... Total+1el-Energy
 Convergence forced     ConvForced      .... 0
 Energy Change          TolE            ....  1.000e-09 Eh
 1-El. energy change                    ....  1.000e-06 Eh
 Orbital Gradient       TolG            ....  2.000e-06
 Orbital Rotation angle TolX            ....  2.000e-06
 DIIS Error             TolErr          ....  1.000e-08


Diagonalization of the overlap matrix:
Smallest eigenvalue                        ... 1.432e-04
Time for diagonalization                   ...    0.046 sec
Threshold for overlap eigenvalues          ... 1.000e-08
Number of eigenvalues below threshold      ... 0
Time for construction of square roots      ...    0.477 sec
Total time needed                          ...    0.525 sec

Time for model grid setup =    0.277 sec

------------------------------
INITIAL GUESS: MODEL POTENTIAL
------------------------------
Loading Hartree-Fock densities                     ... done
Calculating cut-offs                               ... done
Initializing the effective Hamiltonian             ... done
Setting up the integral package (SHARK)            ... done
Starting the Coulomb interaction                   ... done (   0.3 sec)
Reading the grid                                   ... done
Mapping shells                                     ... done
Starting the XC term evaluation                    ... done (   0.1 sec)
  promolecular density results
     # of electrons  =    100.988118160
     EX              =    -58.975240891
     EC              =     -4.269733683
     EX+EC           =    -63.244974574
Transforming the Hamiltonian                       ... done (   0.0 sec)
Diagonalizing the Hamiltonian                      ... done (   0.0 sec)
Back transforming the eigenvectors                 ... done (   0.0 sec)
Now organizing SCF variables                       ... done
                      ------------------
                      INITIAL GUESS DONE (   0.8 sec)
                      ------------------
-------------------
DFT GRID GENERATION
-------------------

General Integration Accuracy     IntAcc      ... 4.959
Radial Grid Type                 RadialGrid  ... OptM3 with GC (2021)
Angular Grid (max. ang.)         AngularGrid ... 6 (Lebedev-590)
Angular grid pruning method      GridPruning ... 4 (adaptive)
Weight generation scheme         WeightScheme... Becke
Basis function cutoff            BFCut       ... 1.0000e-12
Integration weight cutoff        WCut        ... 1.0000e-14
Angular grids for H and He will be reduced by one unit
Partially contracted basis set               ... off
Rotationally invariant grid construction     ... off

Total number of grid points                  ...   288707
Total number of batches                      ...     4525
Average number of points per batch           ...       63
Average number of grid points per atom       ...    11548
Time for grid setup =    3.413 sec

--------------------
COSX GRID GENERATION
--------------------

GRIDX 1
-------
General Integration Accuracy     IntAcc      ... 4.020
Radial Grid Type                 RadialGrid  ... OptM3 with GC (2021)
Angular Grid (max. ang.)         AngularGrid ... 2 (Lebedev-110)
Angular grid pruning method      GridPruning ... 4 (adaptive)
Weight generation scheme         WeightScheme... Becke
Basis function cutoff            BFCut       ... 1.0000e-12
Integration weight cutoff        WCut        ... 1.0000e-14
Angular grids for H and He will be reduced by one unit
Partially contracted basis set               ... on
Rotationally invariant grid construction     ... off

Total number of grid points                  ...    32146
Total number of batches                      ...      514
Average number of points per batch           ...       62
Average number of grid points per atom       ...     1286
UseSFitting                                  ... on

GRIDX 2
-------
General Integration Accuracy     IntAcc      ... 4.338
Radial Grid Type                 RadialGrid  ... OptM3 with GC (2021)
Angular Grid (max. ang.)         AngularGrid ... 3 (Lebedev-194)
Angular grid pruning method      GridPruning ... 4 (adaptive)
Weight generation scheme         WeightScheme... Becke
Basis function cutoff            BFCut       ... 1.0000e-12
Integration weight cutoff        WCut        ... 1.0000e-14
Angular grids for H and He will be reduced by one unit
Partially contracted basis set               ... on
Rotationally invariant grid construction     ... off

Total number of grid points                  ...    70356
Total number of batches                      ...     1111
Average number of points per batch           ...       63
Average number of grid points per atom       ...     2814
UseSFitting                                  ... on

GRIDX 3
-------
General Integration Accuracy     IntAcc      ... 4.871
Radial Grid Type                 RadialGrid  ... OptM3 with GC (2021)
Angular Grid (max. ang.)         AngularGrid ... 4 (Lebedev-302)
Angular grid pruning method      GridPruning ... 4 (adaptive)
Weight generation scheme         WeightScheme... Becke
Basis function cutoff            BFCut       ... 1.0000e-12
Integration weight cutoff        WCut        ... 1.0000e-14
Angular grids for H and He will be reduced by one unit
Partially contracted basis set               ... on
Rotationally invariant grid construction     ... off

Total number of grid points                  ...   133264
Total number of batches                      ...     2096
Average number of points per batch           ...       63
Average number of grid points per atom       ...     5331
UseSFitting                                  ... on

Time for X-Grid setup             =    2.428 sec

--------------
SCF ITERATIONS
--------------
ITER       Energy         Delta-E        Max-DP      RMS-DP      [F,P]     Damp
               ***  Starting incremental Fock matrix formation  ***
  0   -701.1620615494   0.000000000000 0.05631912  0.00045159  0.3425980 0.7000
  1   -701.2096977188  -0.047636169403 0.05010611  0.00041233  0.2343725 0.7000
                               ***Turning on DIIS***
  2   -701.2379266041  -0.028228885256 0.03895803  0.00032433  0.1629718 0.7000
  3   -701.2565062819  -0.018579677839 0.03049331  0.00026369  0.1124687 0.7000
  4   -701.2695178737  -0.013011591833 0.07730018  0.00069983  0.0774858 0.0000
                      *** Initiating the SOSCF procedure ***
                           *** Shutting down DIIS ***
                      *** Re-Reading the Fockian *** 
                      *** Removing any level shift *** 
ITER      Energy       Delta-E        Grad      Rot      Max-DP    RMS-DP
  5   -701.30082545  -0.0313075747  0.001590  0.001590  0.007463  0.000075
               *** Restarting incremental Fock matrix formation ***
  6   -701.30096265  -0.0001372001  0.000895  0.001897  0.005250  0.000047
  7   -701.30100207  -0.0000394202  0.000534  0.002108  0.003775  0.000034
  8   -701.30100977  -0.0000076979  0.000236  0.000456  0.000826  0.000009
  9   -701.30101241  -0.0000026428  0.000093  0.000100  0.000574  0.000005
 10   -701.30101263  -0.0000002166  0.000025  0.000056  0.000232  0.000002
 11   -701.30101277  -0.0000001433  0.000007  0.000023  0.000020  0.000000
 12   -701.30101277  -0.0000000031  0.000007  0.000005  0.000019  0.000000
 13   -701.30101278  -0.0000000026  0.000002  0.000004  0.000005  0.000000
 14   -701.30101278  -0.0000000002  0.000002  0.000002  0.000002  0.000000
                  ***Gradient check signals convergence***
              ***Rediagonalizing the Fockian in SOSCF/NRSCF***

               *****************************************************
               *                     SUCCESS                       *
               *           SCF CONVERGED AFTER  15 CYCLES          *
               *****************************************************

Old exchange energy                            =    -27.832436667 Eh
New exchange energy                            =    -27.832436116 Eh
Exchange energy change after final integration =      0.000000550 Eh
Total energy after final integration           =   -701.301012225 Eh
Final COS-X integration done in                =    31.858 sec

----------------
TOTAL SCF ENERGY
----------------

Total Energy       :         -701.30101223 Eh          -19083.37072 eV

Components:
Nuclear Repulsion  :          884.11944373 Eh           24058.11315 eV
Electronic Energy  :        -1585.42045595 Eh          -43141.48388 eV
One Electron Energy:        -2696.61996083 Eh          -73378.75964 eV
Two Electron Energy:         1111.19950487 Eh           30237.27576 eV
Max COSX asymmetry :            0.00000073 Eh               0.00002 eV

Virial components:
Potential Energy   :        -1399.27303530 Eh          -38076.15504 eV
Kinetic Energy     :          697.97202307 Eh           18992.78432 eV
Virial Ratio       :            2.00476952


DFT components:
N(Alpha)           :       50.000003752782 electrons
N(Beta)            :       50.000003752782 electrons
N(Total)           :      100.000007505564 electrons
E(X)               :      -60.050399694140 Eh       
E(C)               :       -4.267271514536 Eh       
E(XC)              :      -64.317671208676 Eh       
DFET-embed. en.    :        0.000000000000 Eh       

---------------
SCF CONVERGENCE
---------------

  Last Energy change         ...   -2.0896e-10  Tolerance :   1.0000e-09
  Last MAX-Density change    ...    1.2029e-15  Tolerance :   1.0000e-08
  Last RMS-Density change    ...    1.4207e-17  Tolerance :   1.0000e-09
  Last Orbital Gradient      ...    2.7708e-07  Tolerance :   2.0000e-06
  Last Orbital Rotation      ...    7.1623e-07  Tolerance :   2.0000e-06

             **** THE GBW FILE WAS UPDATED (GGG-H_tt_020_OptFreq.gbw) ****
             **** DENSITY GGG-H_tt_020_OptFreq.scfp WAS UPDATED ****
             **** ENERGY FILE WAS UPDATED (GGG-H_tt_020_OptFreq.en.tmp) ****
             **** THE GBW FILE WAS UPDATED (GGG-H_tt_020_OptFreq.gbw) ****
             **** DENSITY GGG-H_tt_020_OptFreq.scfp WAS UPDATED ****
----------------
ORBITAL ENERGIES
----------------

  NO   OCC          E(Eh)            E(eV) 
   0   2.0000     -19.417975      -528.3900 
   1   2.0000     -19.371219      -527.1177 
   2   2.0000     -19.358299      -526.7661 
   3   2.0000     -19.304815      -525.3107 
   4   2.0000     -14.689908      -399.7327 
   5   2.0000     -14.612323      -397.6215 
   6   2.0000     -14.568399      -396.4263 
   7   2.0000     -10.574252      -287.7400 
   8   2.0000     -10.557259      -287.2776 
   9   2.0000     -10.519431      -286.2483 
  10   2.0000     -10.506695      -285.9017 
  11   2.0000     -10.459960      -284.6300 
  12   2.0000     -10.458811      -284.5987 
  13   2.0000      -1.399986       -38.0955 
  14   2.0000      -1.355652       -36.8892 
  15   2.0000      -1.308720       -35.6121 
  16   2.0000      -1.297339       -35.3024 
  17   2.0000      -1.285225       -34.9727 
  18   2.0000      -1.227533       -33.4029 
  19   2.0000      -1.188495       -32.3406 
  20   2.0000      -1.058123       -28.7930 
  21   2.0000      -1.023185       -27.8423 
  22   2.0000      -0.984993       -26.8030 
  23   2.0000      -0.895931       -24.3795 
  24   2.0000      -0.885901       -24.1066 
  25   2.0000      -0.880296       -23.9541 
  26   2.0000      -0.861912       -23.4538 
  27   2.0000      -0.836273       -22.7562 
  28   2.0000      -0.804020       -21.8785 
  29   2.0000      -0.786961       -21.4143 
  30   2.0000      -0.775090       -21.0913 
  31   2.0000      -0.764910       -20.8143 
  32   2.0000      -0.753360       -20.5000 
  33   2.0000      -0.734693       -19.9920 
  34   2.0000      -0.732602       -19.9351 
  35   2.0000      -0.720576       -19.6079 
  36   2.0000      -0.698975       -19.0201 
  37   2.0000      -0.685384       -18.6502 
  38   2.0000      -0.674778       -18.3616 
  39   2.0000      -0.669191       -18.2096 
  40   2.0000      -0.654601       -17.8126 
  41   2.0000      -0.639768       -17.4090 
  42   2.0000      -0.630921       -17.1682 
  43   2.0000      -0.605352       -16.4725 
  44   2.0000      -0.592300       -16.1173 
  45   2.0000      -0.560238       -15.2448 
  46   2.0000      -0.550883       -14.9903 
  47   2.0000      -0.542153       -14.7527 
  48   2.0000      -0.494386       -13.4529 
  49   2.0000      -0.487152       -13.2561 
  50   0.0000      -0.081674        -2.2225 
  51   0.0000      -0.064239        -1.7480 
  52   0.0000      -0.063402        -1.7253 
  53   0.0000      -0.045174        -1.2292 
  54   0.0000      -0.022170        -0.6033 
  55   0.0000      -0.019282        -0.5247 
  56   0.0000      -0.001003        -0.0273 
  57   0.0000       0.009244         0.2515 
  58   0.0000       0.013724         0.3734 
  59   0.0000       0.024893         0.6774 
  60   0.0000       0.036646         0.9972 
  61   0.0000       0.042450         1.1551 
  62   0.0000       0.058606         1.5948 
  63   0.0000       0.068099         1.8531 
  64   0.0000       0.076868         2.0917 
  65   0.0000       0.082647         2.2489 
  66   0.0000       0.089590         2.4379 
  67   0.0000       0.103890         2.8270 
  68   0.0000       0.115104         3.1321 
  69   0.0000       0.119753         3.2586 
  70   0.0000       0.122877         3.3437 
  71   0.0000       0.134124         3.6497 
  72   0.0000       0.137141         3.7318 
  73   0.0000       0.148930         4.0526 
  74   0.0000       0.161201         4.3865 
  75   0.0000       0.175393         4.7727 
  76   0.0000       0.185719         5.0537 
  77   0.0000       0.192321         5.2333 
  78   0.0000       0.196257         5.3404 
  79   0.0000       0.208586         5.6759 
  80   0.0000       0.218509         5.9459 
  81   0.0000       0.222036         6.0419 
  82   0.0000       0.235955         6.4207 
  83   0.0000       0.241078         6.5601 
  84   0.0000       0.259956         7.0738 
  85   0.0000       0.266444         7.2503 
  86   0.0000       0.279547         7.6069 
  87   0.0000       0.282831         7.6962 
  88   0.0000       0.291960         7.9446 
  89   0.0000       0.298605         8.1255 
  90   0.0000       0.303604         8.2615 
  91   0.0000       0.319665         8.6985 
  92   0.0000       0.325531         8.8582 
  93   0.0000       0.327765         8.9189 
  94   0.0000       0.333093         9.0639 
  95   0.0000       0.336699         9.1620 
  96   0.0000       0.345112         9.3910 
  97   0.0000       0.350169         9.5286 
  98   0.0000       0.352414         9.5897 
  99   0.0000       0.353733         9.6256 
 100   0.0000       0.362069         9.8524 
 101   0.0000       0.366214         9.9652 
 102   0.0000       0.375045        10.2055 
 103   0.0000       0.385287        10.4842 
 104   0.0000       0.392974        10.6934 
 105   0.0000       0.401035        10.9127 
 106   0.0000       0.403461        10.9787 
 107   0.0000       0.419325        11.4104 
 108   0.0000       0.423043        11.5116 
 109   0.0000       0.426824        11.6145 
 110   0.0000       0.436629        11.8813 
 111   0.0000       0.449369        12.2279 
 112   0.0000       0.456067        12.4102 
 113   0.0000       0.465317        12.6619 
 114   0.0000       0.468572        12.7505 
 115   0.0000       0.488071        13.2811 
 116   0.0000       0.495865        13.4932 
 117   0.0000       0.503150        13.6914 
 118   0.0000       0.508580        13.8392 
 119   0.0000       0.514354        13.9963 
 120   0.0000       0.529202        14.4003 
 121   0.0000       0.538717        14.6592 
 122   0.0000       0.545583        14.8461 
 123   0.0000       0.561535        15.2801 
 124   0.0000       0.573046        15.5934 
 125   0.0000       0.577203        15.7065 
 126   0.0000       0.584339        15.9007 
 127   0.0000       0.604784        16.4570 
 128   0.0000       0.605851        16.4861 
 129   0.0000       0.618542        16.8314 
 130   0.0000       0.635208        17.2849 
 131   0.0000       0.656701        17.8697 
 132   0.0000       0.669541        18.2191 
 133   0.0000       0.673982        18.3400 
 134   0.0000       0.684643        18.6301 
 135   0.0000       0.703230        19.1359 
 136   0.0000       0.715175        19.4609 
 137   0.0000       0.719459        19.5775 
 138   0.0000       0.726701        19.7745 
 139   0.0000       0.737798        20.0765 
 140   0.0000       0.752354        20.4726 
 141   0.0000       0.759375        20.6636 
 142   0.0000       0.767313        20.8796 
 143   0.0000       0.780518        21.2390 
 144   0.0000       0.784740        21.3539 
 145   0.0000       0.805311        21.9136 
 146   0.0000       0.809807        22.0360 
 147   0.0000       0.817124        22.2351 
 148   0.0000       0.821612        22.3572 
 149   0.0000       0.837197        22.7813 
 150   0.0000       0.871688        23.7198 
 151   0.0000       0.878616        23.9084 
 152   0.0000       0.888341        24.1730 
 153   0.0000       0.891052        24.2467 
 154   0.0000       0.893881        24.3238 
 155   0.0000       0.906418        24.6649 
 156   0.0000       0.927581        25.2408 
 157   0.0000       0.936248        25.4766 
 158   0.0000       0.944998        25.7147 
 159   0.0000       0.958045        26.0697 
 160   0.0000       0.961725        26.1699 
 161   0.0000       0.969810        26.3899 
 162   0.0000       0.976854        26.5815 
 163   0.0000       0.993804        27.0428 
 164   0.0000       1.001685        27.2572 
 165   0.0000       1.016330        27.6557 
 166   0.0000       1.022146        27.8140 
 167   0.0000       1.027597        27.9623 
 168   0.0000       1.040874        28.3236 
 169   0.0000       1.042697        28.3732 
 170   0.0000       1.046626        28.4801 
 171   0.0000       1.072312        29.1791 
 172   0.0000       1.078942        29.3595 
 173   0.0000       1.085616        29.5411 
 174   0.0000       1.111234        30.2382 
 175   0.0000       1.115176        30.3455 
 176   0.0000       1.133612        30.8471 
 177   0.0000       1.142371        31.0855 
 178   0.0000       1.145939        31.1826 
 179   0.0000       1.152279        31.3551 
 180   0.0000       1.163204        31.6524 
 181   0.0000       1.169542        31.8249 
 182   0.0000       1.183327        32.2000 
 183   0.0000       1.197057        32.5736 
 184   0.0000       1.212215        32.9860 
 185   0.0000       1.216642        33.1065 
 186   0.0000       1.225916        33.3589 
 187   0.0000       1.237413        33.6717 
 188   0.0000       1.255958        34.1763 
 189   0.0000       1.267725        34.4965 
 190   0.0000       1.276703        34.7409 
 191   0.0000       1.288305        35.0566 
 192   0.0000       1.298787        35.3418 
 193   0.0000       1.310476        35.6599 
 194   0.0000       1.312270        35.7087 
 195   0.0000       1.320467        35.9317 
 196   0.0000       1.356037        36.8996 
 197   0.0000       1.363085        37.0914 
 198   0.0000       1.378103        37.5001 
 199   0.0000       1.384158        37.6649 
 200   0.0000       1.396153        37.9913 
 201   0.0000       1.400312        38.1044 
 202   0.0000       1.409890        38.3651 
 203   0.0000       1.416856        38.5546 
 204   0.0000       1.426043        38.8046 
 205   0.0000       1.435980        39.0750 
 206   0.0000       1.442010        39.2391 
 207   0.0000       1.452941        39.5365 
 208   0.0000       1.464829        39.8600 
 209   0.0000       1.470602        40.0171 
 210   0.0000       1.487149        40.4674 
 211   0.0000       1.502642        40.8890 
 212   0.0000       1.523362        41.4528 
 213   0.0000       1.525692        41.5162 
 214   0.0000       1.527545        41.5666 
 215   0.0000       1.550937        42.2032 
 216   0.0000       1.573461        42.8160 
 217   0.0000       1.575804        42.8798 
 218   0.0000       1.595675        43.4205 
 219   0.0000       1.619689        44.0740 
 220   0.0000       1.624804        44.2132 
 221   0.0000       1.638139        44.5760 
 222   0.0000       1.662134        45.2290 
 223   0.0000       1.681431        45.7541 
 224   0.0000       1.696413        46.1618 
 225   0.0000       1.703950        46.3668 
 226   0.0000       1.723323        46.8940 
 227   0.0000       1.731622        47.1198 
 228   0.0000       1.746426        47.5227 
 229   0.0000       1.767835        48.1052 
 230   0.0000       1.781542        48.4782 
 231   0.0000       1.798275        48.9335 
 232   0.0000       1.811218        49.2858 
 233   0.0000       1.828692        49.7612 
 234   0.0000       1.837470        50.0001 
 235   0.0000       1.854919        50.4749 
 236   0.0000       1.869562        50.8734 
 237   0.0000       1.884938        51.2918 
 238   0.0000       1.891236        51.4632 
 239   0.0000       1.923087        52.3298 
 240   0.0000       1.934461        52.6393 
 241   0.0000       1.951663        53.1075 
 242   0.0000       1.961201        53.3670 
 243   0.0000       1.976163        53.7741 
 244   0.0000       2.006353        54.5956 
 245   0.0000       2.013084        54.7788 
 246   0.0000       2.027222        55.1635 
 247   0.0000       2.060497        56.0690 
 248   0.0000       2.083051        56.6827 
 249   0.0000       2.100956        57.1699 
 250   0.0000       2.102608        57.2149 
 251   0.0000       2.112438        57.4824 
 252   0.0000       2.143404        58.3250 
 253   0.0000       2.185897        59.4813 
 254   0.0000       2.200888        59.8892 
 255   0.0000       2.230386        60.6919 
 256   0.0000       2.239060        60.9279 
 257   0.0000       2.253111        61.3103 
 258   0.0000       2.275992        61.9329 
 259   0.0000       2.284176        62.1556 
 260   0.0000       2.302205        62.6462 
 261   0.0000       2.333151        63.4883 
 262   0.0000       2.338552        63.6352 
 263   0.0000       2.361412        64.2573 
 264   0.0000       2.378359        64.7184 
 265   0.0000       2.388995        65.0079 
 266   0.0000       2.412196        65.6392 
 267   0.0000       2.420637        65.8689 
 268   0.0000       2.480506        67.4980 
 269   0.0000       2.491360        67.7934 
 270   0.0000       2.511387        68.3383 
 271   0.0000       2.514604        68.4258 
 272   0.0000       2.525091        68.7112 
 273   0.0000       2.536841        69.0310 
 274   0.0000       2.544646        69.2433 
 275   0.0000       2.562375        69.7258 
 276   0.0000       2.574330        70.0511 
 277   0.0000       2.577165        70.1282 
 278   0.0000       2.589234        70.4566 
 279   0.0000       2.608514        70.9813 
 280   0.0000       2.618123        71.2427 
 281   0.0000       2.628691        71.5303 
 282   0.0000       2.649413        72.0942 
 283   0.0000       2.665435        72.5302 
 284   0.0000       2.673479        72.7491 
 285   0.0000       2.682217        72.9868 
 286   0.0000       2.690146        73.2026 
 287   0.0000       2.710254        73.7498 
 288   0.0000       2.717907        73.9580 
 289   0.0000       2.742087        74.6160 
 290   0.0000       2.757294        75.0298 
 291   0.0000       2.780262        75.6548 
 292   0.0000       2.787368        75.8481 
 293   0.0000       2.794065        76.0304 
 294   0.0000       2.811662        76.5092 
 295   0.0000       2.819576        76.7246 
 296   0.0000       2.852078        77.6090 
 297   0.0000       2.856660        77.7337 
 298   0.0000       2.867935        78.0405 
 299   0.0000       2.889184        78.6187 
 300   0.0000       2.893533        78.7370 
 301   0.0000       2.895918        78.8019 
 302   0.0000       2.920595        79.4734 
 303   0.0000       2.926666        79.6386 
 304   0.0000       2.931100        79.7593 
 305   0.0000       2.940552        80.0165 
 306   0.0000       2.948926        80.2444 
 307   0.0000       2.958613        80.5079 
 308   0.0000       2.975966        80.9802 
 309   0.0000       2.986365        81.2631 
 310   0.0000       2.997620        81.5694 
 311   0.0000       3.016383        82.0800 
 312   0.0000       3.020768        82.1993 
 313   0.0000       3.036058        82.6153 
 314   0.0000       3.046810        82.9079 
 315   0.0000       3.053170        83.0810 
 316   0.0000       3.059440        83.2516 
 317   0.0000       3.062376        83.3315 
 318   0.0000       3.070085        83.5413 
 319   0.0000       3.081485        83.8515 
 320   0.0000       3.090423        84.0947 
 321   0.0000       3.099295        84.3361 
 322   0.0000       3.114155        84.7405 
 323   0.0000       3.117796        84.8395 
 324   0.0000       3.129361        85.1542 
 325   0.0000       3.141449        85.4832 
 326   0.0000       3.152065        85.7720 
 327   0.0000       3.167640        86.1959 
 328   0.0000       3.181024        86.5601 
 329   0.0000       3.185717        86.6878 
 330   0.0000       3.193770        86.9069 
 331   0.0000       3.209015        87.3217 
 332   0.0000       3.214577        87.4731 
 333   0.0000       3.219554        87.6085 
 334   0.0000       3.231091        87.9225 
 335   0.0000       3.244204        88.2793 
 336   0.0000       3.256414        88.6115 
 337   0.0000       3.269350        88.9635 
 338   0.0000       3.287500        89.4574 
 339   0.0000       3.292919        89.6049 
 340   0.0000       3.304157        89.9107 
 341   0.0000       3.314310        90.1870 
 342   0.0000       3.319319        90.3233 
 343   0.0000       3.327610        90.5489 
 344   0.0000       3.350277        91.1657 
 345   0.0000       3.356430        91.3331 
 346   0.0000       3.362759        91.5053 
 347   0.0000       3.373676        91.8024 
 348   0.0000       3.381642        92.0192 
 349   0.0000       3.392425        92.3126 
 350   0.0000       3.401655        92.5637 
 351   0.0000       3.406855        92.7052 
 352   0.0000       3.416507        92.9679 
 353   0.0000       3.432017        93.3899 
 354   0.0000       3.444060        93.7176 
 355   0.0000       3.449438        93.8640 
 356   0.0000       3.455170        94.0199 
 357   0.0000       3.467015        94.3423 
 358   0.0000       3.480964        94.7218 
 359   0.0000       3.490109        94.9707 
 360   0.0000       3.502190        95.2994 
 361   0.0000       3.512502        95.5800 
 362   0.0000       3.540126        96.3317 
 363   0.0000       3.546887        96.5157 
 364   0.0000       3.560821        96.8949 
 365   0.0000       3.563466        96.9668 
 366   0.0000       3.574149        97.2575 
 367   0.0000       3.584655        97.5434 
 368   0.0000       3.592375        97.7535 
 369   0.0000       3.602865        98.0389 
 370   0.0000       3.608592        98.1948 
 371   0.0000       3.619546        98.4928 
 372   0.0000       3.636108        98.9435 
 373   0.0000       3.641232        99.0830 
 374   0.0000       3.667012        99.7845 
 375   0.0000       3.679157       100.1150 
 376   0.0000       3.695589       100.5621 
 377   0.0000       3.705484       100.8313 
 378   0.0000       3.717047       101.1460 
 379   0.0000       3.735486       101.6477 
 380   0.0000       3.744513       101.8934 
 381   0.0000       3.764286       102.4314 
 382   0.0000       3.778126       102.8080 
 383   0.0000       3.794396       103.2508 
 384   0.0000       3.803772       103.5059 
 385   0.0000       3.824444       104.0684 
 386   0.0000       3.838026       104.4380 
 387   0.0000       3.846380       104.6653 
 388   0.0000       3.851288       104.7989 
 389   0.0000       3.867090       105.2289 
 390   0.0000       3.879027       105.5537 
 391   0.0000       3.899906       106.1218 
 392   0.0000       3.913105       106.4810 
 393   0.0000       3.920976       106.6952 
 394   0.0000       3.922236       106.7295 
 395   0.0000       3.942755       107.2878 
 396   0.0000       3.970333       108.0383 
 397   0.0000       3.976958       108.2185 
 398   0.0000       3.983753       108.4034 
 399   0.0000       4.002030       108.9008 
 400   0.0000       4.016387       109.2914 
 401   0.0000       4.021087       109.4194 
 402   0.0000       4.034455       109.7831 
 403   0.0000       4.049563       110.1942 
 404   0.0000       4.061421       110.5169 
 405   0.0000       4.064981       110.6138 
 406   0.0000       4.088651       111.2579 
 407   0.0000       4.096080       111.4600 
 408   0.0000       4.106653       111.7477 
 409   0.0000       4.124818       112.2420 
 410   0.0000       4.138960       112.6268 
 411   0.0000       4.142979       112.7362 
 412   0.0000       4.160906       113.2240 
 413   0.0000       4.176832       113.6574 
 414   0.0000       4.185573       113.8952 
 415   0.0000       4.196825       114.2014 
 416   0.0000       4.220135       114.8357 
 417   0.0000       4.229355       115.0866 
 418   0.0000       4.245214       115.5182 
 419   0.0000       4.251171       115.6802 
 420   0.0000       4.257349       115.8484 
 421   0.0000       4.280322       116.4735 
 422   0.0000       4.289727       116.7294 
 423   0.0000       4.295687       116.8916 
 424   0.0000       4.311885       117.3323 
 425   0.0000       4.321847       117.6034 
 426   0.0000       4.336489       118.0019 
 427   0.0000       4.360085       118.6439 
 428   0.0000       4.396892       119.6455 
 429   0.0000       4.410840       120.0251 
 430   0.0000       4.428153       120.4962 
 431   0.0000       4.438750       120.7845 
 432   0.0000       4.467564       121.5686 
 433   0.0000       4.478359       121.8624 
 434   0.0000       4.492780       122.2548 
 435   0.0000       4.498102       122.3996 
 436   0.0000       4.510896       122.7477 
 437   0.0000       4.559785       124.0781 
 438   0.0000       4.586000       124.7914 
 439   0.0000       4.592514       124.9687 
 440   0.0000       4.605904       125.3330 
 441   0.0000       4.617752       125.6554 
 442   0.0000       4.634141       126.1014 
 443   0.0000       4.639311       126.2421 
 444   0.0000       4.691429       127.6603 
 445   0.0000       4.693992       127.7300 
 446   0.0000       4.714900       128.2990 
 447   0.0000       4.733092       128.7940 
 448   0.0000       4.747115       129.1756 
 449   0.0000       4.757564       129.4599 
 450   0.0000       4.776023       129.9622 
 451   0.0000       4.787401       130.2718 
 452   0.0000       4.800640       130.6321 
 453   0.0000       4.815310       131.0312 
 454   0.0000       4.817801       131.0990 
 455   0.0000       4.839591       131.6920 
 456   0.0000       4.847993       131.9206 
 457   0.0000       4.865444       132.3955 
 458   0.0000       4.897303       133.2624 
 459   0.0000       4.922460       133.9469 
 460   0.0000       4.947967       134.6410 
 461   0.0000       4.986541       135.6907 
 462   0.0000       5.006759       136.2408 
 463   0.0000       5.015892       136.4894 
 464   0.0000       5.029267       136.8533 
 465   0.0000       5.039672       137.1364 
 466   0.0000       5.070835       137.9844 
 467   0.0000       5.107526       138.9828 
 468   0.0000       5.112423       139.1161 
 469   0.0000       5.117399       139.2515 
 470   0.0000       5.125806       139.4803 
 471   0.0000       5.132102       139.6516 
 472   0.0000       5.135196       139.7358 
 473   0.0000       5.154227       140.2536 
 474   0.0000       5.170662       140.7009 
 475   0.0000       5.181257       140.9892 
 476   0.0000       5.181939       141.0077 
 477   0.0000       5.209262       141.7512 
 478   0.0000       5.234683       142.4430 
 479   0.0000       5.252612       142.9308 
 480   0.0000       5.255272       143.0032 
 481   0.0000       5.274452       143.5251 
 482   0.0000       5.291127       143.9789 
 483   0.0000       5.301544       144.2623 
 484   0.0000       5.347492       145.5126 
 485   0.0000       5.354309       145.6981 
 486   0.0000       5.359091       145.8283 
 487   0.0000       5.376217       146.2943 
 488   0.0000       5.392062       146.7255 
 489   0.0000       5.400160       146.9458 
 490   0.0000       5.423385       147.5778 
 491   0.0000       5.453029       148.3845 
 492   0.0000       5.461804       148.6232 
 493   0.0000       5.476564       149.0249 
 494   0.0000       5.502913       149.7419 
 495   0.0000       5.516980       150.1247 
 496   0.0000       5.537019       150.6700 
 497   0.0000       5.555409       151.1704 
 498   0.0000       5.565220       151.4373 
 499   0.0000       5.574606       151.6927 
 500   0.0000       5.584282       151.9560 
 501   0.0000       5.594841       152.2434 
 502   0.0000       5.600246       152.3904 
 503   0.0000       5.623341       153.0189 
 504   0.0000       5.632085       153.2568 
 505   0.0000       5.644301       153.5892 
 506   0.0000       5.682871       154.6388 
 507   0.0000       5.707339       155.3046 
 508   0.0000       5.775808       157.1677 
 509   0.0000       5.790460       157.5664 
 510   0.0000       5.836113       158.8087 
 511   0.0000       5.848730       159.1520 
 512   0.0000       5.855651       159.3404 
 513   0.0000       5.934691       161.4912 
 514   0.0000       5.937195       161.5593 
 515   0.0000       5.956844       162.0940 
 516   0.0000       5.980184       162.7291 
 517   0.0000       5.989195       162.9743 
 518   0.0000       6.010965       163.5667 
 519   0.0000       6.084543       165.5688 
 520   0.0000       6.106065       166.1545 
 521   0.0000       6.138914       167.0483 
 522   0.0000       6.162209       167.6822 
 523   0.0000       6.209152       168.9596 
 524   0.0000       6.269787       170.6096 
 525   0.0000       6.329942       172.2465 
 526   0.0000       6.335041       172.3852 
 527   0.0000       6.349213       172.7709 
 528   0.0000       6.384348       173.7270 
 529   0.0000       6.399730       174.1455 
 530   0.0000       6.409983       174.4245 
 531   0.0000       6.422269       174.7588 
 532   0.0000       6.457482       175.7170 
 533   0.0000       6.466009       175.9491 
 534   0.0000       6.472346       176.1215 
 535   0.0000       6.487698       176.5392 
 536   0.0000       6.523800       177.5216 
 537   0.0000       6.550384       178.2450 
 538   0.0000       6.594873       179.4556 
 539   0.0000       6.608503       179.8265 
 540   0.0000       6.633382       180.5035 
 541   0.0000       6.714886       182.7213 
 542   0.0000       6.728240       183.0847 
 543   0.0000       6.745821       183.5631 
 544   0.0000       6.797241       184.9623 
 545   0.0000       6.802587       185.1078 
 546   0.0000       6.812713       185.3833 
 547   0.0000       6.851487       186.4385 
 548   0.0000       6.883483       187.3091 
 549   0.0000       6.930872       188.5986 
 550   0.0000       7.070746       192.4048 
 551   0.0000       7.098111       193.1494 
 552   0.0000       7.146614       194.4693 
 553   0.0000       7.179264       195.3577 
 554   0.0000       7.224065       196.5768 
 555   0.0000       7.305632       198.7964 
 556   0.0000       7.395039       201.2292 
 557   0.0000       7.443652       202.5521 
 558   0.0000      23.104465       628.7045 
 559   0.0000      23.187152       630.9545 
 560   0.0000      23.206533       631.4819 
 561   0.0000      23.304912       634.1589 
 562   0.0000      23.343907       635.2200 
 563   0.0000      23.390689       636.4930 
 564   0.0000      32.704841       889.9440 
 565   0.0000      32.852906       893.9730 
 566   0.0000      32.891398       895.0204 
 567   0.0000      43.858685      1193.4555 
 568   0.0000      43.894979      1194.4431 
 569   0.0000      43.934184      1195.5099 
 570   0.0000      43.941124      1195.6988 

                    ********************************
                    * MULLIKEN POPULATION ANALYSIS *
                    ********************************

-----------------------
MULLIKEN ATOMIC CHARGES
-----------------------
   0 N :   -0.185998
   1 H :    0.147658
   2 C :   -0.069250
   3 C :    0.382922
   4 H :    0.149427
   5 H :    0.154088
   6 O :   -0.450940
   7 C :    0.247552
   8 C :   -0.074699
   9 O :   -0.316508
  10 N :   -0.228358
  11 H :    0.154496
  12 H :    0.141092
  13 H :    0.205547
  14 C :    0.256308
  15 C :   -0.165544
  16 O :   -0.360401
  17 H :    0.179500
  18 H :    0.160165
  19 O :   -0.220150
  20 H :    0.248371
  21 N :   -0.071173
  22 H :    0.245907
  23 H :    0.234632
  24 H :    0.235358
Sum of atomic charges:    1.0000000

--------------------------------
MULLIKEN REDUCED ORBITAL CHARGES
--------------------------------
  0 N s       :     3.395638  s :     3.395638
      pz      :     1.121911  p :     3.731701
      px      :     1.552294
      py      :     1.057497
      dz2     :     0.015847  d :     0.054954
      dxz     :     0.010822
      dyz     :     0.014059
      dx2y2   :     0.009013
      dxy     :     0.005214
      f0      :     0.000612  f :     0.003705
      f+1     :     0.000725
      f-1     :     0.000538
      f+2     :     0.000694
      f-2     :     0.000549
      f+3     :     0.000254
      f-3     :     0.000333
  1 H s       :     0.781054  s :     0.781054
      pz      :     0.018378  p :     0.065816
      px      :     0.024850
      py      :     0.022587
      dz2     :     0.000600  d :     0.005473
      dxz     :     0.000086
      dyz     :     0.001591
      dx2y2   :     0.001131
      dxy     :     0.002065
  2 C s       :     3.153678  s :     3.153678
      pz      :     0.893670  p :     2.796009
      px      :     0.866549
      py      :     1.035790
      dz2     :     0.035518  d :     0.111431
      dxz     :     0.026700
      dyz     :     0.011758
      dx2y2   :     0.022156
      dxy     :     0.015300
      f0      :     0.001727  f :     0.008133
      f+1     :     0.001572
      f-1     :     0.000995
      f+2     :     0.001276
      f-2     :     0.001028
      f+3     :     0.000621
      f-3     :     0.000916
  3 C s       :     3.079303  s :     3.079303
      pz      :     0.671658  p :     2.253664
      px      :     0.838485
      py      :     0.743521
      dz2     :     0.081406  d :     0.259146
      dxz     :     0.043037
      dyz     :     0.042992
      dx2y2   :     0.043439
      dxy     :     0.048272
      f0      :     0.004173  f :     0.024966
      f+1     :     0.002568
      f-1     :     0.004455
      f+2     :     0.004414
      f-2     :     0.004239
      f+3     :     0.002685
      f-3     :     0.002432
  4 H s       :     0.808637  s :     0.808637
      pz      :     0.010077  p :     0.039732
      px      :     0.008747
      py      :     0.020908
      dz2     :     0.000175  d :     0.002204
      dxz     :     0.000106
      dyz     :     0.000787
      dx2y2   :     0.000372
      dxy     :     0.000765
  5 H s       :     0.811203  s :     0.811203
      pz      :     0.012397  p :     0.032666
      px      :     0.011106
      py      :     0.009163
      dz2     :     0.000657  d :     0.002043
      dxz     :     0.000425
      dyz     :     0.000553
      dx2y2   :     0.000179
      dxy     :     0.000228
  6 O s       :     3.817336  s :     3.817336
      pz      :     1.514455  p :     4.605878
      px      :     1.673161
      py      :     1.418261
      dz2     :     0.005581  d :     0.025782
      dxz     :     0.004192
      dyz     :     0.006377
      dx2y2   :     0.005507
      dxy     :     0.004124
      f0      :     0.000215  f :     0.001945
      f+1     :     0.000179
      f-1     :     0.000436
      f+2     :     0.000394
      f-2     :     0.000364
      f+3     :     0.000155
      f-3     :     0.000202
[...]
     53       0.003301   0.003871   0.537244  -0.055052   0.004439  -0.006440
     54       0.002278  -0.002636  -0.380654   0.000079  -0.022703  -0.001427
     55       0.003071  -0.003870  -0.543025   0.005122  -0.018248  -0.000900
     56      -0.002575   0.003197   0.444738  -0.007386   0.015844   0.000784
     57      -0.000048  -0.000004   0.000007   0.000071  -0.000008   0.000104
     58      -0.000038   0.000006  -0.000077  -0.000969   0.000215  -0.000167
     59      -0.000117   0.000002  -0.000096  -0.001131   0.000231  -0.000123
     60      -0.000591  -0.000023  -0.000334  -0.004458   0.000706  -0.002263
     61       0.001696   0.000018   0.000414   0.005568  -0.001236   0.001572
     62      -0.000401  -0.000043   0.000181   0.002552  -0.000556   0.000136
     63       0.000151   0.000044  -0.001536  -0.002509   0.028365  -0.047923
     64      -0.000083   0.000049  -0.001285   0.010386   0.051250   0.057676
     65      -0.001278  -0.000219   0.004497   0.066007  -0.035850   0.011934
     66      -0.002154  -0.000279   0.013300   0.132665  -0.004052   0.006164
     67       0.001788   0.000383  -0.004852  -0.133814   0.021007  -0.002206
     68       0.016977   0.002624  -0.042214  -0.965358   0.087218  -0.082461
     69       0.000958   0.000036   0.001117  -0.084763  -0.103495   0.691839
     70      -0.000918  -0.000232  -0.001857   0.081248   0.095477  -0.686018
     71       0.000067  -0.000001  -0.000584   0.008095   0.021642  -0.141844
     72      -0.000267  -0.000749   0.002703  -0.025785  -0.316050  -0.051272
     73      -0.000339  -0.000839   0.021771  -0.083805  -0.848090  -0.109832
     74      -0.000242   0.000249  -0.013776   0.049078   0.382843   0.056929
                 72         73         74    
      0       0.000094  -0.004281  -0.000095
      1       0.001013  -0.071131  -0.000005
      2       0.000137  -0.012831  -0.000139
      3      -0.001082   0.046466   0.000528
      4      -0.014170   0.978334   0.000897
      5      -0.001334   0.187503   0.000323
      6      -0.000008   0.000593  -0.000612
      7      -0.000029  -0.000322   0.000523
      8       0.000033   0.000782   0.000207
      9      -0.000001   0.000021   0.002191
     10       0.000055  -0.000011  -0.000726
     11       0.000099  -0.000163   0.000899
     12      -0.000124   0.003665  -0.001160
     13       0.000010   0.008234  -0.002623
     14      -0.000114   0.001857  -0.000641
     15       0.000075  -0.000687   0.000343
     16       0.000014  -0.000733   0.000141
     17      -0.000177   0.000210  -0.002885
     18       0.000013   0.000087   0.000021
     19      -0.000025  -0.000063  -0.000657
     20      -0.000064   0.000092  -0.000840
     21       0.000039   0.000097   0.000036
     22      -0.000213  -0.000717  -0.000109
     23      -0.000194  -0.001046   0.000128
     24       0.001170  -0.000034  -0.000008
     25      -0.001037  -0.000186   0.000001
     26      -0.000456   0.000221   0.000001
     27       0.000006  -0.000017  -0.000011
     28      -0.000001   0.001118   0.000055
     29       0.000003  -0.000166  -0.000034
     30       0.038101   0.000446  -0.000044
     31       0.063518   0.000907  -0.000081
     32       0.002734  -0.000286  -0.000025
     33       0.000302   0.000628   0.000024
     34      -0.005733  -0.000091  -0.000007
     35       0.003414   0.000130  -0.000050
     36      -0.008990   0.000305   0.000056
     37      -0.000832  -0.000086  -0.000036
     38       0.000296  -0.000020  -0.000021
     39      -0.506295  -0.007272   0.000666
     40      -0.858295  -0.012105   0.001078
     41      -0.033499  -0.002702   0.000166
     42      -0.001493   0.000176   0.000009
     43       0.001119   0.000244   0.000034
     44      -0.000158  -0.000115   0.000038
     45       0.000328   0.000068  -0.000010
     46       0.000056   0.000084  -0.000012
     47      -0.000000  -0.000027   0.000017
     48      -0.000872  -0.000091   0.000002
     49      -0.000859  -0.000165  -0.000016
     50      -0.000009  -0.000011  -0.000030
     51      -0.000411  -0.000238   0.000084
     52      -0.000214  -0.000128   0.000039
     53      -0.000034   0.000232  -0.000010
     54      -0.001762   0.000051   0.000072
     55      -0.001973  -0.001016   0.000233
     56       0.000688   0.000162   0.000045
     57       0.000054  -0.000055   0.053224
     58      -0.000054   0.000018  -0.030230
     59      -0.000029  -0.000001   0.006755
     60      -0.001132   0.000776  -0.861219
     61       0.000661  -0.000442   0.493687
     62      -0.000014   0.000129  -0.103448
     63      -0.000014  -0.000009   0.000200
     64       0.000378  -0.000080  -0.000179
     65      -0.000178  -0.000072  -0.000403
     66      -0.000089  -0.000157  -0.002396
     67       0.000092   0.000599   0.001988
     68       0.001518   0.001566   0.006173
     69       0.001752   0.000067  -0.001607
     70      -0.001756   0.000001   0.001377
     71      -0.000364  -0.000033  -0.000158
     72      -0.000500   0.000052  -0.000347
     73      -0.004283   0.000716  -0.000046
     74       0.001822  -0.000247   0.000147


-----------
IR SPECTRUM
-----------

 Mode   freq       eps      Int      T**2         TX        TY        TZ
       cm**-1   L/(mol*cm) km/mol    a.u.
----------------------------------------------------------------------------
  6:     53.75   0.000723    3.65  0.004197  (-0.031310  0.012730  0.055267)
  7:     63.58   0.000542    2.74  0.002660  (-0.038339 -0.027744 -0.020500)
  8:     66.44   0.001464    7.40  0.006876  ( 0.075256 -0.003386 -0.034657)
  9:     88.26   0.001402    7.08  0.004956  ( 0.064231 -0.020646  0.020092)
 10:    110.51   0.003566   18.02  0.010068  (-0.009710  0.061536  0.078660)
 11:    120.47   0.000923    4.67  0.002392  (-0.038399  0.021977 -0.020851)
 12:    186.23   0.010400   52.56  0.017427  (-0.018375  0.008557  0.130446)
 13:    222.94   0.000468    2.36  0.000654  ( 0.011707  0.014344  0.017654)
 14:    242.16   0.002070   10.46  0.002668  (-0.015061  0.042791 -0.024693)
 15:    259.96   0.003379   17.07  0.004056  (-0.052004 -0.007616  0.035966)
 16:    278.18   0.002370   11.98  0.002659  (-0.045280  0.024418 -0.003548)
 17:    309.73   0.001141    5.77  0.001149  (-0.023149  0.017108  0.017915)
 18:    359.94   0.004136   20.90  0.003586  ( 0.041286 -0.043168  0.004233)
 19:    409.54   0.012608   63.72  0.009607  (-0.084339  0.047379 -0.015795)
 20:    438.60   0.011903   60.15  0.008469  (-0.080624  0.002568  0.044297)
 21:    464.05   0.020617  104.19  0.013864  ( 0.032668  0.028460  0.109486)
 22:    481.59   0.010584   53.49  0.006858  (-0.041749 -0.018727  0.069027)
 23:    520.72   0.005640   28.50  0.003380  ( 0.043434  0.036986  0.011216)
 24:    524.70   0.004254   21.50  0.002530  (-0.002836 -0.016567  0.047411)
 25:    613.65   0.003331   16.83  0.001694  (-0.037567 -0.015034 -0.007516)
 26:    631.07   0.003043   15.38  0.001505  (-0.017153 -0.016503  0.030630)
 27:    646.10   0.004936   24.95  0.002384  ( 0.037258 -0.021079  0.023488)
 28:    671.32   0.017412   87.99  0.008094  (-0.043851 -0.061218  0.049227)
 29:    703.62   0.000464    2.35  0.000206  (-0.003121 -0.001806  0.013890)
 30:    722.66   0.000245    1.24  0.000106  (-0.006399  0.007988 -0.001046)
 31:    879.30   0.004329   21.88  0.001536  ( 0.022579 -0.023212  0.022084)
 32:    888.99   0.002492   12.59  0.000875  ( 0.002197  0.004158  0.029199)
 33:    916.38   0.004269   21.57  0.001454  ( 0.002530 -0.029223 -0.024358)
 34:    931.57   0.005283   26.70  0.001770  ( 0.004112  0.000624  0.041863)
 35:   1010.64   0.001335    6.75  0.000412  (-0.017412  0.007688 -0.007076)
 36:   1043.43   0.001379    6.97  0.000412  ( 0.013064 -0.009956 -0.011939)
 37:   1057.60   0.001744    8.81  0.000514  ( 0.006885 -0.000491 -0.021606)
 38:   1082.71   0.003571   18.05  0.001029  ( 0.006129 -0.031489 -0.000311)
 39:   1129.65   0.000974    4.92  0.000269  ( 0.004078  0.010348 -0.012054)
 40:   1136.98   0.004904   24.78  0.001346  (-0.012189  0.030829  0.015714)
 41:   1168.81   0.005204   26.30  0.001389  (-0.025885 -0.009292 -0.025162)
 42:   1208.97   0.040905  206.72  0.010559  (-0.061601 -0.010692 -0.081545)
 43:   1258.26   0.002464   12.45  0.000611  ( 0.001919 -0.017960  0.016876)
 44:   1271.36   0.008844   44.69  0.002171  (-0.012785  0.017272  0.041340)
 45:   1273.65   0.004335   21.91  0.001062  (-0.018208  0.019849 -0.018350)
 46:   1314.03   0.012816   64.77  0.003044  ( 0.033340 -0.025278  0.035960)
 47:   1342.83   0.000646    3.26  0.000150  (-0.007917 -0.003040  0.008837)
 48:   1345.89   0.003605   18.22  0.000836  (-0.013029 -0.006406 -0.025002)
 49:   1365.17   0.003764   19.02  0.000860  ( 0.024405 -0.012125  0.010851)
 50:   1413.73   0.000552    2.79  0.000122  (-0.002742 -0.010690 -0.000337)
 51:   1464.14   0.019972  100.93  0.004257  ( 0.043693 -0.021048  0.043641)
 52:   1470.39   0.018857   95.29  0.004002  ( 0.011953  0.023400  0.057546)
 53:   1476.71   0.003039   15.36  0.000642  (-0.022303 -0.010443  0.005986)
 54:   1493.74   0.007207   36.42  0.001506  ( 0.027116  0.027003  0.006423)
 55:   1512.81   0.044287  223.81  0.009136  (-0.095576  0.000445 -0.000830)
 56:   1567.71   0.025756  130.16  0.005127  ( 0.012249  0.028725 -0.064433)
 57:   1581.90   0.042147  212.99  0.008314  ( 0.074374 -0.045409  0.026850)
 58:   1611.21   0.003500   17.69  0.000678  ( 0.005852 -0.025369  0.000112)
 59:   1685.36   0.026814  135.51  0.004965  ( 0.033836 -0.049356 -0.037202)
 60:   1781.49   0.090865  459.19  0.015917  ( 0.012532  0.085585  0.091842)
 61:   1792.44   0.038003  192.05  0.006616  (-0.069258  0.013872  0.040338)
 62:   1837.25   0.053340  269.56  0.009060  ( 0.004103  0.093110 -0.019329)
 63:   3087.32   0.003357   16.97  0.000339  ( 0.009970 -0.007820  0.013372)
 64:   3122.02   0.000255    1.29  0.000026  ( 0.004462  0.000541  0.002308)
 65:   3125.10   0.000346    1.75  0.000035  ( 0.005165 -0.002067 -0.001903)
 66:   3140.83   0.002093   10.58  0.000208  (-0.004745  0.013418 -0.002326)
 67:   3185.97   0.000044    0.22  0.000004  (-0.001988 -0.000548  0.000113)
 68:   3188.06   0.000103    0.52  0.000010  ( 0.001724  0.000595 -0.002604)
 69:   3243.05   0.111658  564.27  0.010744  ( 0.018467 -0.036946 -0.095070)
 70:   3341.27   0.023087  116.67  0.002156  (-0.004532 -0.035164  0.029987)
 71:   3561.00   0.027493  138.94  0.002409  ( 0.032621 -0.034860 -0.011398)
 72:   3675.48   0.014215   71.84  0.001207  (-0.025994 -0.022718 -0.003888)
 73:   3701.86   0.004860   24.56  0.000410  (-0.001720  0.020098  0.001667)
 74:   3803.74   0.024938  126.03  0.002046  (-0.038458  0.011829 -0.020664)

* The epsilon (eps) is given for a Dirac delta lineshape.
** The dipole moment derivative (T) already includes vibrational overlap.

The first frequency considered to be a vibration is 6
The total number of vibrations considered is 69


--------------------------
THERMOCHEMISTRY AT 298.15K
--------------------------

Temperature         ... 298.15 K
Pressure            ... 1.00 atm
Total Mass          ... 190.18 AMU

Throughout the following assumptions are being made:
  (1) The electronic state is orbitally nondegenerate
  (2) There are no thermally accessible electronically excited states
  (3) Hindered rotations indicated by low frequency modes are not
      treated as such but are treated as vibrations and this may
      cause some error
  (4) All equations used are the standard statistical mechanics
      equations for an ideal gas
  (5) All vibrations are strictly harmonic

freq.      53.75  E(vib)   ...       0.52 
freq.      63.58  E(vib)   ...       0.51 
freq.      66.44  E(vib)   ...       0.50 
freq.      88.26  E(vib)   ...       0.48 
freq.     110.51  E(vib)   ...       0.45 
freq.     120.47  E(vib)   ...       0.44 
freq.     186.23  E(vib)   ...       0.37 
freq.     222.94  E(vib)   ...       0.33 
freq.     242.16  E(vib)   ...       0.31 
freq.     259.96  E(vib)   ...       0.30 
freq.     278.18  E(vib)   ...       0.28 
freq.     309.73  E(vib)   ...       0.26 
freq.     359.94  E(vib)   ...       0.22 
freq.     409.54  E(vib)   ...       0.19 
freq.     438.60  E(vib)   ...       0.17 
freq.     464.05  E(vib)   ...       0.16 
freq.     481.59  E(vib)   ...       0.15 
freq.     520.72  E(vib)   ...       0.13 
freq.     524.70  E(vib)   ...       0.13 
freq.     613.65  E(vib)   ...       0.10 
freq.     631.07  E(vib)   ...       0.09 
freq.     646.10  E(vib)   ...       0.09 
freq.     671.32  E(vib)   ...       0.08 
freq.     703.62  E(vib)   ...       0.07 
freq.     722.66  E(vib)   ...       0.07 
freq.     879.30  E(vib)   ...       0.04 
freq.     888.99  E(vib)   ...       0.04 
freq.     916.38  E(vib)   ...       0.03 
freq.     931.57  E(vib)   ...       0.03 
freq.    1010.64  E(vib)   ...       0.02 
freq.    1043.43  E(vib)   ...       0.02 
freq.    1057.60  E(vib)   ...       0.02 
freq.    1082.71  E(vib)   ...       0.02 
freq.    1129.65  E(vib)   ...       0.01 
freq.    1136.98  E(vib)   ...       0.01 
freq.    1168.81  E(vib)   ...       0.01 
freq.    1208.97  E(vib)   ...       0.01 
freq.    1258.26  E(vib)   ...       0.01 
freq.    1271.36  E(vib)   ...       0.01 
freq.    1273.65  E(vib)   ...       0.01 
freq.    1314.03  E(vib)   ...       0.01 
freq.    1342.83  E(vib)   ...       0.01 
freq.    1345.89  E(vib)   ...       0.01 
freq.    1365.17  E(vib)   ...       0.01 
freq.    1413.73  E(vib)   ...       0.00 
freq.    1464.14  E(vib)   ...       0.00 
freq.    1470.39  E(vib)   ...       0.00 
freq.    1476.71  E(vib)   ...       0.00 
freq.    1493.74  E(vib)   ...       0.00 
freq.    1512.81  E(vib)   ...       0.00 
freq.    1567.71  E(vib)   ...       0.00 
freq.    1581.90  E(vib)   ...       0.00 
freq.    1611.21  E(vib)   ...       0.00 
freq.    1685.36  E(vib)   ...       0.00 
freq.    1781.49  E(vib)   ...       0.00 
freq.    1792.44  E(vib)   ...       0.00 
freq.    1837.25  E(vib)   ...       0.00 
freq.    3087.32  E(vib)   ...       0.00 
freq.    3122.02  E(vib)   ...       0.00 
freq.    3125.10  E(vib)   ...       0.00 
freq.    3140.83  E(vib)   ...       0.00 
freq.    3185.97  E(vib)   ...       0.00 
freq.    3188.06  E(vib)   ...       0.00 
freq.    3243.05  E(vib)   ...       0.00 
freq.    3341.27  E(vib)   ...       0.00 
freq.    3561.00  E(vib)   ...       0.00 
freq.    3675.48  E(vib)   ...       0.00 
freq.    3701.86  E(vib)   ...       0.00 
freq.    3803.74  E(vib)   ...       0.00 

------------
INNER ENERGY
------------

The inner energy is: U= E(el) + E(ZPE) + E(vib) + E(rot) + E(trans)
    E(el)   - is the total energy from the electronic structure calculation
              = E(kin-el) + E(nuc-el) + E(el-el) + E(nuc-nuc)
    E(ZPE)  - the the zero temperature vibrational energy from the frequency calculation
    E(vib)  - the the finite temperature correction to E(ZPE) due to population
              of excited vibrational states
    E(rot)  - is the rotational thermal energy
    E(trans)- is the translational thermal energy

Summary of contributions to the inner energy U:
Electronic energy                ...   -701.34906156 Eh
Zero point energy                ...      0.20886369 Eh     131.06 kcal/mol
Thermal vibrational correction   ...      0.01068166 Eh       6.70 kcal/mol
Thermal rotational correction    ...      0.00141627 Eh       0.89 kcal/mol
Thermal translational correction ...      0.00141627 Eh       0.89 kcal/mol
-----------------------------------------------------------------------
Total thermal energy                   -701.12668365 Eh


Summary of corrections to the electronic energy:
(perhaps to be used in another calculation)
Total thermal correction                  0.01351421 Eh       8.48 kcal/mol
Non-thermal (ZPE) correction              0.20886369 Eh     131.06 kcal/mol
-----------------------------------------------------------------------
Total correction                          0.22237790 Eh     139.54 kcal/mol


--------
ENTHALPY
--------

The enthalpy is H = U + kB*T
                kB is Boltzmann's constant
Total free energy                 ...   -701.12668365 Eh 
Thermal Enthalpy correction       ...      0.00094421 Eh       0.59 kcal/mol
-----------------------------------------------------------------------
Total Enthalpy                    ...   -701.12573944 Eh


Note: Only C1 symmetry has been detected, increase convergence thresholds 
      if your molecule has a higher symmetry. Symmetry factor of 1.0 is   
      used for the rotational entropy correction. 
 

Note: Rotational entropy computed according to Herzberg 
Infrared and Raman Spectra, Chapter V,1, Van Nostrand Reinhold, 1945 
Point Group:  C1, Symmetry Number:   1  
Rotational constants in cm-1:     0.029676     0.024661     0.015377 

Vibrational entropy computed according to the QRRHO of S. Grimme
Chem.Eur.J. 2012 18 9955


-------
ENTROPY
-------

The entropy contributions are T*S = T*(S(el)+S(vib)+S(rot)+S(trans))
     S(el)   - electronic entropy
     S(vib)  - vibrational entropy
     S(rot)  - rotational entropy
     S(trans)- translational entropy
The entropies will be listed as multiplied by the temperature to get
units of energy

Electronic entropy                ...      0.00000000 Eh      0.00 kcal/mol
Vibrational entropy               ...      0.01868946 Eh     11.73 kcal/mol
Rotational entropy                ...      0.01489019 Eh      9.34 kcal/mol
Translational entropy             ...      0.01978162 Eh     12.41 kcal/mol
-----------------------------------------------------------------------
Final entropy term                ...      0.05336127 Eh     33.48 kcal/mol

In case the symmetry of your molecule has not been determined correctly
or in case you have a reason to use a different symmetry number we print 
out the resulting rotational entropy values for sn=1,12 :
 --------------------------------------------------------
|  sn= 1 | S(rot)=       0.01489019 Eh      9.34 kcal/mol|
|  sn= 2 | S(rot)=       0.01423573 Eh      8.93 kcal/mol|
|  sn= 3 | S(rot)=       0.01385290 Eh      8.69 kcal/mol|
|  sn= 4 | S(rot)=       0.01358128 Eh      8.52 kcal/mol|
|  sn= 5 | S(rot)=       0.01337059 Eh      8.39 kcal/mol|
|  sn= 6 | S(rot)=       0.01319844 Eh      8.28 kcal/mol|
|  sn= 7 | S(rot)=       0.01305290 Eh      8.19 kcal/mol|
|  sn= 8 | S(rot)=       0.01292682 Eh      8.11 kcal/mol|
|  sn= 9 | S(rot)=       0.01281561 Eh      8.04 kcal/mol|
|  sn=10 | S(rot)=       0.01271613 Eh      7.98 kcal/mol|
|  sn=11 | S(rot)=       0.01262614 Eh      7.92 kcal/mol|
|  sn=12 | S(rot)=       0.01254399 Eh      7.87 kcal/mol|
 --------------------------------------------------------


-------------------
GIBBS FREE ENERGY
-------------------

The Gibbs free energy is G = H - T*S

Total enthalpy                    ...   -701.12573944 Eh 
Total entropy correction          ...     -0.05336127 Eh    -33.48 kcal/mol
-----------------------------------------------------------------------
Final Gibbs free energy         ...   -701.17910071 Eh

For completeness - the Gibbs free energy minus the electronic energy
G-E(el)                           ...      0.16996084 Eh    106.65 kcal/mol


Timings for individual modules:

Sum of individual times         ...     5875.699 sec (=  97.928 min)
GTO integral calculation        ...       21.263 sec (=   0.354 min)   0.4 %
SCF iterations                  ...     1739.112 sec (=  28.985 min)  29.6 %
SCF Gradient evaluation         ...      366.982 sec (=   6.116 min)   6.2 %
Geometry relaxation             ...        0.939 sec (=   0.016 min)   0.0 %
Analytical frequency calculation...     3239.761 sec (=  53.996 min)  55.1 %
CHELPG charge generation        ...      507.643 sec (=   8.461 min)   8.6 %
                             ****ORCA TERMINATED NORMALLY****
TOTAL RUN TIME: 0 days 1 hours 38 minutes 16 seconds 135 msec
