
Lmod is automatically replacing "intel/2020.1.217" with "gcc/10.3.0".


Due to MODULEPATH changes, the following have been reloaded:
  1) blis/0.8.1     2) flexiblas/3.0.4

The following have been reloaded with a version change:
  1) gcccore/.9.3.0 => gcccore/.10.3.0        3) openmpi/4.0.3 => openmpi/4.1.1
  2) libfabric/1.10.1 => libfabric/1.12.1     4) ucx/1.8.0 => ucx/1.9.0

To execute ORCA, run: 
   ${EBROOTORCA}/orca orca.inp > orca.out

                                 *****************
                                 * O   R   C   A *
                                 *****************

                                            #,                                       
                                            ###                                      
                                            ####                                     
                                            #####                                    
                                            ######                                   
                                           ########,                                 
                                     ,,################,,,,,                         
                               ,,#################################,,                 
                          ,,##########################################,,             
                       ,#########################################, ''#####,          
                    ,#############################################,,   '####,        
                  ,##################################################,,,,####,       
                ,###########''''           ''''###############################       
              ,#####''   ,,,,##########,,,,          '''####'''          '####       
            ,##' ,,,,###########################,,,                        '##       
           ' ,,###''''                  '''############,,,                           
         ,,##''                                '''############,,,,        ,,,,,,###''
      ,#''                                            '''#######################'''  
     '                                                          ''''####''''         
             ,#######,   #######,   ,#######,      ##                                
            ,#'     '#,  ##    ##  ,#'     '#,    #''#        ######   ,####,        
            ##       ##  ##   ,#'  ##            #'  '#       #        #'  '#        
            ##       ##  #######   ##           ,######,      #####,   #    #        
            '#,     ,#'  ##    ##  '#,     ,#' ,#      #,         ##   #,  ,#        
             '#######'   ##     ##  '#######'  #'      '#     #####' # '####'        



                  #######################################################
                  #                        -***-                        #
                  #          Department of theory and spectroscopy      #
                  #    Directorship and core code : Frank Neese         #
                  #        Max Planck Institute fuer Kohlenforschung    #
                  #                Kaiser Wilhelm Platz 1               #
                  #                 D-45470 Muelheim/Ruhr               #
                  #                      Germany                        #
                  #                                                     #
                  #                  All rights reserved                #
                  #                        -***-                        #
                  #######################################################


                         Program Version 5.0.2 -  RELEASE  -


 With contributions from (in alphabetic order):
   Daniel Aravena         : Magnetic Suceptibility
   Michael Atanasov       : Ab Initio Ligand Field Theory (pilot matlab implementation)
   Alexander A. Auer      : GIAO ZORA, VPT2 properties, NMR spectrum
   Ute Becker             : Parallelization
   Giovanni Bistoni       : ED, misc. LED, open-shell LED, HFLD
   Martin Brehm           : Molecular dynamics
   Dmytro Bykov           : SCF Hessian
   Vijay G. Chilkuri      : MRCI spin determinant printing, contributions to CSF-ICE
   Dipayan Datta          : RHF DLPNO-CCSD density
   Achintya Kumar Dutta   : EOM-CC, STEOM-CC
   Dmitry Ganyushin       : Spin-Orbit,Spin-Spin,Magnetic field MRCI
   Miquel Garcia          : C-PCM and meta-GGA Hessian, CC/C-PCM, Gaussian charge scheme
   Yang Guo               : DLPNO-NEVPT2, F12-NEVPT2, CIM, IAO-localization
   Andreas Hansen         : Spin unrestricted coupled pair/coupled cluster methods
   Benjamin Helmich-Paris : MC-RPA, TRAH-SCF, COSX integrals
   Lee Huntington         : MR-EOM, pCC
   Robert Izsak           : Overlap fitted RIJCOSX, COSX-SCS-MP3, EOM
   Marcus Kettner         : VPT2
   Christian Kollmar      : KDIIS, OOCD, Brueckner-CCSD(T), CCSD density, CASPT2, CASPT2-K
   Simone Kossmann        : Meta GGA functionals, TD-DFT gradient, OOMP2, MP2 Hessian
   Martin Krupicka        : Initial AUTO-CI
   Lucas Lang             : DCDCAS
   Marvin Lechner         : AUTO-CI (C++ implementation), FIC-MRCC
   Dagmar Lenk            : GEPOL surface, SMD
   Dimitrios Liakos       : Extrapolation schemes; Compound Job, initial MDCI parallelization
   Dimitrios Manganas     : Further ROCIS development; embedding schemes
   Dimitrios Pantazis     : SARC Basis sets
   Anastasios Papadopoulos: AUTO-CI, single reference methods and gradients
   Taras Petrenko         : DFT Hessian,TD-DFT gradient, ASA, ECA, R-Raman, ABS, FL, XAS/XES, NRVS
   Peter Pinski           : DLPNO-MP2, DLPNO-MP2 Gradient
   Christoph Reimann      : Effective Core Potentials
   Marius Retegan         : Local ZFS, SOC
   Christoph Riplinger    : Optimizer, TS searches, QM/MM, DLPNO-CCSD(T), (RO)-DLPNO pert. Triples
   Tobias Risthaus        : Range-separated hybrids, TD-DFT gradient, RPA, STAB
   Michael Roemelt        : Original ROCIS implementation
   Masaaki Saitow         : Open-shell DLPNO-CCSD energy and density
   Barbara Sandhoefer     : DKH picture change effects
   Avijit Sen             : IP-ROCIS
   Kantharuban Sivalingam : CASSCF convergence, NEVPT2, FIC-MRCI
   Bernardo de Souza      : ESD, SOC TD-DFT
   Georgi Stoychev        : AutoAux, RI-MP2 NMR, DLPNO-MP2 response
   Willem Van den Heuvel  : Paramagnetic NMR
   Boris Wezisla          : Elementary symmetry handling
   Frank Wennmohs         : Technical directorship


 We gratefully acknowledge several colleagues who have allowed us to
 interface, adapt or use parts of their codes:
   Stefan Grimme, W. Hujo, H. Kruse, P. Pracht,  : VdW corrections, initial TS optimization,
                  C. Bannwarth, S. Ehlert          DFT functionals, gCP, sTDA/sTD-DF
   Ed Valeev, F. Pavosevic, A. Kumar             : LibInt (2-el integral package), F12 methods
   Garnet Chan, S. Sharma, J. Yang, R. Olivares  : DMRG
   Ulf Ekstrom                                   : XCFun DFT Library
   Mihaly Kallay                                 : mrcc  (arbitrary order and MRCC methods)
   Jiri Pittner, Ondrej Demel                    : Mk-CCSD
   Frank Weinhold                                : gennbo (NPA and NBO analysis)
   Christopher J. Cramer and Donald G. Truhlar   : smd solvation model
   Lars Goerigk                                  : TD-DFT with DH, B97 family of functionals
   V. Asgeirsson, H. Jonsson                     : NEB implementation
   FAccTs GmbH                                   : IRC, NEB, NEB-TS, DLPNO-Multilevel, CI-OPT
                                                   MM, QMMM, 2- and 3-layer-ONIOM, Crystal-QMMM,
                                                   LR-CPCM, SF, NACMEs, symmetry and pop. for TD-DFT,
                                                   nearIR, NL-DFT gradient (VV10), updates on ESD,
                                                   ML-optimized integration grids
   S Lehtola, MJT Oliveira, MAL Marques          : LibXC Library
   Liviu Ungur et al                             : ANISO software


 Your calculation uses the libint2 library for the computation of 2-el integrals
 For citations please refer to: http://libint.valeyev.net

 Your ORCA version has been built with support for libXC version: 5.1.0
 For citations please refer to: https://tddft.org/programs/libxc/

 This ORCA versions uses:
   CBLAS   interface :  Fast vector & matrix operations
   LAPACKE interface :  Fast linear algebra routines
   SCALAPACK package :  Parallel linear algebra routines
   Shared memory     :  Shared parallel matrices
   BLAS/LAPACK       :  OpenBLAS 0.3.15  USE64BITINT DYNAMIC_ARCH NO_AFFINITY Zen SINGLE_THREADED
        Core in use  :  Zen
   Copyright (c) 2011-2014, The OpenBLAS Project


Your calculation utilizes the atom-pairwise dispersion correction
with the Becke-Johnson damping scheme (D3BJ)
Cite in your paper:
S.Grimme, S.Ehrlich, L.Goerigk, J Comput Chem, (2011), 32, 1456–1465 
S.Grimme, J.Antony, S.Ehrlich and H.Krieg, J.Chem.Phys., 132, (2010), 154104 
   

================================================================================

----- Orbital basis set information -----
Your calculation utilizes the basis: def2-TZVPP
   F. Weigend and R. Ahlrichs, Phys. Chem. Chem. Phys. 7, 3297 (2005).

----- AuxJ basis set information -----
Your calculation utilizes the auxiliary basis: def2/J
   F. Weigend, Phys. Chem. Chem. Phys. 8, 1057 (2006).

================================================================================
                                        WARNINGS
                       Please study these warnings very carefully!
================================================================================


WARNING: Geometry Optimization
  ===> : Switching off AutoStart
         For restart on a previous wavefunction, please use MOREAD

INFO   : the flag for use of the SHARK integral package has been found!

================================================================================
                                       INPUT FILE
================================================================================
NAME = GGG-H_tt_027_OptFreq.inp
|  1> # GGG-H_tt_027 (old 162)
|  2> ! wB97X-D3BJ Opt Freq def2-TZVPP def2/J RIJCOSX VeryTightSCF
|  3> ! PAL8 defgrid3 VeryTightOpt
|  4> 
|  5> %maxcore 4096
|  6> 
|  7> %geom
|  8>   MaxIter 300
|  9>   # MaxStep 0.1
| 10>   Calc_Hess true
| 11>   Recalc_Hess 10
| 12> end
| 13> 
| 14> %chelpg
| 15>   grid 0.1
| 16>   rmax 3.0
| 17> end
| 18> 
| 19> * xyz 1 1 
| 20>  N   +0.137101   +2.198946   +2.784269
| 21>  H   +0.191761   +3.065441   +2.250351
| 22>  C   +0.714371   +2.155489   +4.112085
| 23>  C   +2.051093   +1.386161   +4.148197
| 24>  H   +0.870063   +3.186777   +4.470732
| 25>  H   +0.018436   +1.653211   +4.809109
| 26>  O   +2.595617   +0.926709   +3.162659
| 27>  C   -0.192134   +1.051971   +2.150450
| 28>  C   -0.624188   +1.136304   +0.672674
| 29>  O   -0.108292   -0.053171   +2.718339
| 30>  N   +0.000000   +0.000000   +0.000000
| 31>  H   -0.300466   +2.073572   +0.196338
| 32>  H   -1.720121   +1.053573   +0.596099
| 33>  H   -0.477630   -0.893735   +0.116052
| 34>  C   +1.377788   +0.000000   +0.000000
| 35>  C   +2.033762   -1.358341   +0.293019
| 36>  O   +2.049550   +1.019277   +0.000000
| 37>  H   +3.053162   -1.392474   -0.114540
| 38>  H   +1.452983   -2.232574   -0.040018
| 39>  O   +2.594769   +1.220719   +5.359891
| 40>  H   +2.069348   +1.650234   +6.064788
| 41>  N   +2.108503   -1.386364   +1.803406
| 42>  H   +1.151602   -1.182557   +2.214390
| 43>  H   +2.482866   -2.270540   +2.175726
| 44>  H   +2.671634   -0.581113   +2.179265
| 45> *
| 46> 
| 47>                          ****END OF INPUT****
================================================================================

                       *****************************
                       * Geometry Optimization Run *
                       *****************************

Geometry optimization settings:
Update method            Update   .... BFGS
Choice of coordinates    CoordSys .... Z-matrix Internals
Initial Hessian          InHess   .... Almoef's Model

Convergence Tolerances:
Energy Change            TolE     ....  2.0000e-07 Eh
Max. Gradient            TolMAXG  ....  3.0000e-05 Eh/bohr
RMS Gradient             TolRMSG  ....  8.0000e-06 Eh/bohr
Max. Displacement        TolMAXD  ....  2.0000e-04 bohr
RMS Displacement         TolRMSD  ....  1.0000e-04 bohr
Strict Convergence                ....  False
------------------------------------------------------------------------------
                        ORCA OPTIMIZATION COORDINATE SETUP
------------------------------------------------------------------------------

The optimization will be done in new redundant internal coordinates
Making redundant internal coordinates   ...  (new redundants) done
Evaluating the initial hessian          ...  (Is done on the fly) done
Evaluating the coordinates              ...  done
Calculating the B-matrix                .... done
Calculating the G-matrix                .... done
Diagonalizing the G-matrix              .... done
Small eigenvalue found = 1.147e-02
Small eigenvalue found = 1.631e-02
Small eigenvalue found = 2.314e-02
The first mode is                       ....   45
The number of degrees of freedom        ....   69

    -----------------------------------------------------------------
                    Redundant Internal Coordinates


    -----------------------------------------------------------------
         Definition                    Initial Value    d2E/dq (diagonal element)
    -----------------------------------------------------------------
      1. B(H   1,N   0)                  1.0192         0.000000   
      2. B(C   2,N   0)                  1.4485         0.000000   
      3. B(C   3,C   2)                  1.5427         0.000000   
      4. B(H   4,C   2)                  1.1029         0.000000   
      5. B(H   5,C   2)                  1.1056         0.000000   
      6. B(O   6,C   3)                  1.2161         0.000000   
      7. B(C   7,N   0)                  1.3512         0.000000   
      8. B(C   8,C   7)                  1.5419         0.000000   
      9. B(O   9,C   7)                  1.2453         0.000000   
     10. B(N  10,C   8)                  1.4606         0.000000   
     11. B(H  11,C   8)                  1.1001         0.000000   
     12. B(H  12,C   8)                  1.1017         0.000000   
     13. B(H  13,N  10)                  1.0200         0.000000   
     14. B(C  14,N  10)                  1.3778         0.000000   
     15. B(C  15,C  14)                  1.5366         0.000000   
     16. B(O  16,C  14)                  1.2207         0.000000   
     17. B(H  17,C  15)                  1.0984         0.000000   
     18. B(H  18,C  15)                  1.1011         0.000000   
     19. B(O  19,C   3)                  1.3383         0.000000   
     20. B(H  20,O  19)                  0.9785         0.000000   
     21. B(N  21,C  15)                  1.5125         0.000000   
     22. B(H  22,N  21)                  1.0612         0.000000   
     23. B(H  23,N  21)                  1.0298         0.000000   
     24. B(H  24,H  20)                  4.5209         0.000000   
     25. B(H  24,N  21)                  1.0521         0.000000   
     26. A(H   1,N   0,C   2)          118.9676         0.000000   
     27. A(C   2,N   0,C   7)          120.1083         0.000000   
     28. A(H   1,N   0,C   7)          119.2746         0.000000   
     29. A(C   3,C   2,H   5)          107.7033         0.000000   
     30. A(C   3,C   2,H   4)          109.6558         0.000000   
     31. A(N   0,C   2,H   4)          109.0436         0.000000   
     32. A(N   0,C   2,C   3)          112.4406         0.000000   
     33. A(N   0,C   2,H   5)          109.9178         0.000000   
     34. A(H   4,C   2,H   5)          107.9770         0.000000   
     35. A(O   6,C   3,O  19)          120.3395         0.000000   
     36. A(C   2,C   3,O  19)          115.7742         0.000000   
     37. A(C   2,C   3,O   6)          123.8769         0.000000   
     38. A(C   8,C   7,O   9)          120.2938         0.000000   
     39. A(N   0,C   7,O   9)          121.5334         0.000000   
     40. A(N   0,C   7,C   8)          118.1261         0.000000   
     41. A(C   7,C   8,H  11)          112.2795         0.000000   
     42. A(C   7,C   8,N  10)          106.2060         0.000000   
     43. A(H  11,C   8,H  12)          109.0633         0.000000   
     44. A(N  10,C   8,H  12)          109.5532         0.000000   
     45. A(C   7,C   8,H  12)          109.9521         0.000000   
     46. A(N  10,C   8,H  11)          109.7346         0.000000   
     47. A(H  13,N  10,C  14)          117.9223         0.000000   
     48. A(C   8,N  10,C  14)          115.2999         0.000000   
     49. A(C   8,N  10,H  13)          115.4148         0.000000   
     50. A(C  15,C  14,O  16)          120.2103         0.000000   
     51. A(N  10,C  14,O  16)          123.3872         0.000000   
     52. A(N  10,C  14,C  15)          115.2703         0.000000   
     53. A(H  17,C  15,H  18)          110.6472         0.000000   
     54. A(C  14,C  15,H  18)          114.7706         0.000000   
     55. A(C  14,C  15,H  17)          110.6652         0.000000   
     56. A(H  18,C  15,N  21)          108.2631         0.000000   
     57. A(H  17,C  15,N  21)          108.9110         0.000000   
     58. A(C  14,C  15,N  21)          103.1732         0.000000   
     59. A(C   3,O  19,H  20)          112.3230         0.000000   
     60. A(H  23,N  21,H  24)          109.4760         0.000000   
     61. A(H  22,N  21,H  24)          101.3793         0.000000   
     62. A(C  15,N  21,H  24)          111.6561         0.000000   
     63. A(H  22,N  21,H  23)          110.6509         0.000000   
     64. A(C  15,N  21,H  23)          113.2600         0.000000   
     65. A(C  15,N  21,H  22)          109.7935         0.000000   
     66. D(H   4,C   2,N   0,C   7)   -177.5745         0.000000   
     67. D(H   5,C   2,N   0,C   7)    -59.3875         0.000000   
     68. D(H   5,C   2,N   0,H   1)    135.3522         0.000000   
     69. D(H   4,C   2,N   0,H   1)     17.1651         0.000000   
     70. D(C   3,C   2,N   0,H   1)   -104.6754         0.000000   
     71. D(C   3,C   2,N   0,C   7)     60.5849         0.000000   
     72. D(O   6,C   3,C   2,H   4)   -117.9202         0.000000   
     73. D(O  19,C   3,C   2,H   5)    -54.0654         0.000000   
     74. D(O  19,C   3,C   2,H   4)     63.1952         0.000000   
     75. D(O   6,C   3,C   2,H   5)    124.8192         0.000000   
     76. D(O  19,C   3,C   2,N   0)   -175.3129         0.000000   
     77. D(O   6,C   3,C   2,N   0)      3.5717         0.000000   
     78. D(O   9,C   7,N   0,H   1)    170.8149         0.000000   
     79. D(C   8,C   7,N   0,C   2)   -171.9185         0.000000   
     80. D(C   8,C   7,N   0,H   1)     -6.7032         0.000000   
     81. D(O   9,C   7,N   0,C   2)      5.5996         0.000000   
     82. D(H  12,C   8,C   7,O   9)     80.0598         0.000000   
     83. D(H  12,C   8,C   7,N   0)   -102.3902         0.000000   
     84. D(H  11,C   8,C   7,O   9)   -158.3234         0.000000   
     85. D(N  10,C   8,C   7,O   9)    -38.3840         0.000000   
     86. D(N  10,C   8,C   7,N   0)    139.1661         0.000000   
     87. D(H  11,C   8,C   7,N   0)     19.2266         0.000000   
     88. D(C  14,N  10,C   8,H  12)    178.6892         0.000000   
     89. D(C  14,N  10,C   8,H  11)     58.9775         0.000000   
     90. D(C  14,N  10,C   8,C   7)    -62.6041         0.000000   
     91. D(H  13,N  10,C   8,H  12)    -38.3663         0.000000   
     92. D(H  13,N  10,C   8,H  11)   -158.0780         0.000000   
     93. D(H  13,N  10,C   8,C   7)     80.3404         0.000000   
     94. D(O  16,C  14,N  10,C   8)    -30.6249         0.000000   
     95. D(C  15,C  14,N  10,H  13)     -4.7747         0.000000   
     96. D(C  15,C  14,N  10,C   8)    137.2019         0.000000   
     97. D(O  16,C  14,N  10,H  13)   -172.6015         0.000000   
     98. D(N  21,C  15,C  14,O  16)     81.3608         0.000000   
     99. D(N  21,C  15,C  14,N  10)    -86.8835         0.000000   
    100. D(H  18,C  15,C  14,O  16)   -161.0928         0.000000   
    101. D(H  18,C  15,C  14,N  10)     30.6629         0.000000   
    102. D(H  17,C  15,C  14,O  16)    -35.0002         0.000000   
    103. D(H  17,C  15,C  14,N  10)    156.7555         0.000000   
    104. D(H  20,O  19,C   3,O   6)    178.9735         0.000000   
    105. D(H  20,O  19,C   3,C   2)     -2.0994         0.000000   
    106. D(H  24,N  21,C  15,H  18)    178.8206         0.000000   
    107. D(H  24,N  21,C  15,H  17)     58.4521         0.000000   
    108. D(H  24,N  21,C  15,C  14)    -59.1487         0.000000   
    109. D(H  23,N  21,C  15,H  18)     54.6857         0.000000   
    110. D(H  23,N  21,C  15,H  17)    -65.6827         0.000000   
    111. D(H  23,N  21,C  15,C  14)    176.7165         0.000000   
    112. D(H  22,N  21,C  15,H  18)    -69.5553         0.000000   
    113. D(H  22,N  21,C  15,H  17)    170.0763         0.000000   
    114. D(H  22,N  21,C  15,C  14)     52.4755         0.000000   
    -----------------------------------------------------------------

Number of atoms                         .... 25
Number of degrees of freedom            .... 114

         *************************************************************
         *                GEOMETRY OPTIMIZATION CYCLE   1            *
         *************************************************************
---------------------------------
CARTESIAN COORDINATES (ANGSTROEM)
---------------------------------
  N      0.137101    2.198946    2.784269
  H      0.191761    3.065441    2.250351
  C      0.714371    2.155489    4.112085
  C      2.051093    1.386161    4.148197
  H      0.870063    3.186777    4.470732
  H      0.018436    1.653211    4.809109
  O      2.595617    0.926709    3.162659
  C     -0.192134    1.051971    2.150450
  C     -0.624188    1.136304    0.672674
  O     -0.108292   -0.053171    2.718339
  N      0.000000    0.000000    0.000000
  H     -0.300466    2.073572    0.196338
  H     -1.720121    1.053573    0.596099
  H     -0.477630   -0.893735    0.116052
  C      1.377788    0.000000    0.000000
  C      2.033762   -1.358341    0.293019
  O      2.049550    1.019277    0.000000
  H      3.053162   -1.392474   -0.114540
  H      1.452983   -2.232574   -0.040018
  O      2.594769    1.220719    5.359891
  H      2.069348    1.650234    6.064788
  N      2.108503   -1.386364    1.803406
  H      1.151602   -1.182557    2.214390
  H      2.482866   -2.270540    2.175726
  H      2.671634   -0.581113    2.179265

----------------------------
CARTESIAN COORDINATES (A.U.)
----------------------------
  NO LB      ZA    FRAG     MASS         X           Y           Z
   0 N     7.0000    0    14.007    0.259083    4.155406    5.261506
   1 H     1.0000    0     1.008    0.362376    5.792844    4.252547
   2 C     6.0000    0    12.011    1.349966    4.073284    7.770714
   3 C     6.0000    0    12.011    3.876004    2.619465    7.838956
   4 H     1.0000    0     1.008    1.644181    6.022136    8.448459
   5 H     1.0000    0     1.008    0.034839    3.124116    9.087899
   6 O     8.0000    0    15.999    4.905005    1.751226    5.976559
   7 C     6.0000    0    12.011   -0.363081    1.987937    4.063762
   8 C     6.0000    0    12.011   -1.179544    2.147303    1.271170
   9 O     8.0000    0    15.999   -0.204642   -0.100479    5.136916
  10 N     7.0000    0    14.007    0.000000    0.000000    0.000000
  11 H     1.0000    0     1.008   -0.567798    3.918483    0.371025
  12 H     1.0000    0     1.008   -3.250558    1.990964    1.126464
  13 H     1.0000    0     1.008   -0.902590   -1.688914    0.219306
  14 C     6.0000    0    12.011    2.603642    0.000000    0.000000
  15 C     6.0000    0    12.011    3.843253   -2.566892    0.553726
  16 O     8.0000    0    15.999    3.873088    1.926154    0.000000
  17 H     1.0000    0     1.008    5.769640   -2.631395   -0.216449
  18 H     1.0000    0     1.008    2.745740   -4.218953   -0.075623
  19 O     8.0000    0    15.999    4.903403    2.306825   10.128726
  20 H     1.0000    0     1.008    3.910501    3.118490   11.460788
  21 N     7.0000    0    14.007    3.984493   -2.619848    3.407943
  22 H     1.0000    0     1.008    2.176212   -2.234709    4.184591
  23 H     1.0000    0     1.008    4.691937   -4.290699    4.111526
  24 H     1.0000    0     1.008    5.048657   -1.098144    4.118214

--------------------------------
INTERNAL COORDINATES (ANGSTROEM)
--------------------------------
 N      0   0   0     0.000000000000     0.00000000     0.00000000
 H      1   0   0     1.019249592273     0.00000000     0.00000000
 C      1   2   0     1.448524937171   118.96759390     0.00000000
 C      3   1   2     1.542723356086   112.44061962   255.32456572
 H      3   1   2     1.102915503752   109.04358670    17.16511078
 H      3   1   2     1.105645137503   109.91781834   135.35216732
 O      4   3   1     1.216095257915   123.87689458     3.57173285
 C      1   2   3     1.351174992594   119.27456396   194.61510946
 C      8   1   2     1.541948319491   118.12606639   353.29684844
 O      8   1   2     1.245337800538   121.53336782   170.81489708
 N      9   8   1     1.460577882222   106.20595669   139.16606652
 H      9   8   1     1.100074189318   112.27954855    19.22664000
 H      9   8   1     1.101715611887   109.95213029   257.60980284
 H     11   9   8     1.019980751695   115.41480026    80.34043794
 C     11   9   8     1.377788000000   115.29993739   297.39590465
 C     15  11   9     1.536636682927   115.27031865   137.20192707
 O     15  11   9     1.220733299035   123.38717313   329.37513817
 H     16  15  11     1.098383248311   110.66520698   156.75548717
 H     16  15  11     1.101136335110   114.77061007    30.66290277
 O      4   3   1     1.338341136622   115.77417864   184.68711637
 H     20   4   3     0.978483593667   112.32298443   357.90055625
 N     16  15  11     1.512494758794   103.17321735   273.11653824
 H     22  16  15     1.061180788229   109.79352050    52.47547093
 H     22  16  15     1.029823789366   113.26003211   176.71648607
 H     22  16  15     1.052053080430   111.65605122   300.85131520

---------------------------
INTERNAL COORDINATES (A.U.)
---------------------------
 N      0   0   0     0.000000000000     0.00000000     0.00000000
 H      1   0   0     1.926102591507     0.00000000     0.00000000
 C      1   2   0     2.737315429408   118.96759390     0.00000000
 C      3   1   2     2.915324643406   112.44061962   255.32456572
 H      3   1   2     2.084208250947   109.04358670    17.16511078
 H      3   1   2     2.089366511183   109.91781834   135.35216732
 O      4   3   1     2.298086990220   123.87689458     3.57173285
 C      1   2   3     2.553350695005   119.27456396   194.61510946
 C      8   1   2     2.913860036498   118.12606639   353.29684844
 O      8   1   2     2.353347387237   121.53336782   170.81489708
 N      9   8   1     2.760092194662   106.20595669   139.16606652
 H      9   8   1     2.078838944807   112.27954855    19.22664000
 H      9   8   1     2.081940783931   109.95213029   257.60980284
 H     11   9   8     1.927484282575   115.41480026    80.34043794
 C     11   9   8     2.603641990603   115.29993739   297.39590465
 C     15  11   9     2.903822498070   115.27031865   137.20192707
 O     15  11   9     2.306851617734   123.38717313   329.37513817
 H     16  15  11     2.075643529394   110.66520698   156.75548717
 H     16  15  11     2.080846109467   114.77061007    30.66290277
 O      4   3   1     2.529098221977   115.77417864   184.68711637
 H     20   4   3     1.849066018565   112.32298443   357.90055625
 N     16  15  11     2.858200873112   103.17321735   273.11653824
 H     22  16  15     2.005341068331   109.79352050    52.47547093
 H     22  16  15     1.946084928100   113.26003211   176.71648607
 H     22  16  15     1.988092200362   111.65605122   300.85131520

---------------------
BASIS SET INFORMATION
---------------------
There are 4 groups of distinct atoms

 Group   1 Type N   : 11s6p2d1f contracted to 5s3p2d1f pattern {62111/411/11/1}
 Group   2 Type H   : 5s2p1d contracted to 3s2p1d pattern {311/11/1}
 Group   3 Type C   : 11s6p2d1f contracted to 5s3p2d1f pattern {62111/411/11/1}
 Group   4 Type O   : 11s6p2d1f contracted to 5s3p2d1f pattern {62111/411/11/1}

Atom   0N    basis set group =>   1
Atom   1H    basis set group =>   2
Atom   2C    basis set group =>   3
Atom   3C    basis set group =>   3
Atom   4H    basis set group =>   2
Atom   5H    basis set group =>   2
Atom   6O    basis set group =>   4
Atom   7C    basis set group =>   3
Atom   8C    basis set group =>   3
Atom   9O    basis set group =>   4
Atom  10N    basis set group =>   1
Atom  11H    basis set group =>   2
Atom  12H    basis set group =>   2
Atom  13H    basis set group =>   2
Atom  14C    basis set group =>   3
Atom  15C    basis set group =>   3
Atom  16O    basis set group =>   4
Atom  17H    basis set group =>   2
Atom  18H    basis set group =>   2
Atom  19O    basis set group =>   4
Atom  20H    basis set group =>   2
Atom  21N    basis set group =>   1
Atom  22H    basis set group =>   2
Atom  23H    basis set group =>   2
Atom  24H    basis set group =>   2
---------------------------------
AUXILIARY/J BASIS SET INFORMATION
---------------------------------
There are 4 groups of distinct atoms

 Group   1 Type N   : 12s5p4d2f1g contracted to 6s4p3d1f1g pattern {711111/2111/211/2/1}
 Group   2 Type H   : 5s2p1d contracted to 3s1p1d pattern {311/2/1}
 Group   3 Type C   : 12s5p4d2f1g contracted to 6s4p3d1f1g pattern {711111/2111/211/2/1}
 Group   4 Type O   : 12s5p4d2f1g contracted to 6s4p3d1f1g pattern {711111/2111/211/2/1}

Atom   0N    basis set group =>   1
Atom   1H    basis set group =>   2
Atom   2C    basis set group =>   3
Atom   3C    basis set group =>   3
Atom   4H    basis set group =>   2
Atom   5H    basis set group =>   2
Atom   6O    basis set group =>   4
Atom   7C    basis set group =>   3
Atom   8C    basis set group =>   3
Atom   9O    basis set group =>   4
Atom  10N    basis set group =>   1
Atom  11H    basis set group =>   2
Atom  12H    basis set group =>   2
Atom  13H    basis set group =>   2
Atom  14C    basis set group =>   3
Atom  15C    basis set group =>   3
Atom  16O    basis set group =>   4
Atom  17H    basis set group =>   2
Atom  18H    basis set group =>   2
Atom  19O    basis set group =>   4
Atom  20H    basis set group =>   2
Atom  21N    basis set group =>   1
Atom  22H    basis set group =>   2
Atom  23H    basis set group =>   2
Atom  24H    basis set group =>   2


           ************************************************************
           *        Program running with 8 parallel MPI-processes     *
           *              working on a common directory               *
           ************************************************************
------------------------------------------------------------------------------
                           ORCA GTO INTEGRAL CALCULATION
                           -- RI-GTO INTEGRALS CHOSEN --
------------------------------------------------------------------------------
------------------------------------------------------------------------------
                   ___                                                        
                  /   \      - P O W E R E D   B Y -                         
                 /     \                                                     
                 |  |  |   _    _      __       _____    __    __             
                 |  |  |  | |  | |    /  \     |  _  \  |  |  /  |          
                  \  \/   | |  | |   /    \    | | | |  |  | /  /          
                 / \  \   | |__| |  /  /\  \   | |_| |  |  |/  /          
                |  |  |   |  __  | /  /__\  \  |    /   |      \           
                |  |  |   | |  | | |   __   |  |    \   |  |\   \          
                \     /   | |  | | |  |  |  |  | |\  \  |  | \   \       
                 \___/    |_|  |_| |__|  |__|  |_| \__\ |__|  \__/        
                                                                              
                      - O R C A' S   B I G   F R I E N D -                    
                                      &                                       
                       - I N T E G R A L  F E E D E R -                       
                                                                              
 v1 FN, 2020, v2 2021                                                         
------------------------------------------------------------------------------


Reading SHARK input file GGG-H_tt_027_OptFreq.SHARKINP.tmp ... ok
----------------------
SHARK INTEGRAL PACKAGE
----------------------

Number of atoms                             ...     25
Number of basis functions                   ...    571
Number of shells                            ...    215
Maximum angular momentum                    ...      3
Integral batch strategy                     ... SHARK/LIBINT Hybrid
RI-J (if used) integral strategy            ... SPLIT-RIJ (Revised 2003 algorithm where possible)
Printlevel                                  ...      1
Contraction scheme used                     ... SEGMENTED contraction
Coulomb Range Separation                    ... NOT USED
Exchange Range Separation                   ... Long Range
   Mu parameter                             ...  0.300000
   Scaling (regular/separated)              ...  0.167000  0.833000
Finite Nucleus Model                        ... NOT USED
Auxiliary Coulomb fitting basis             ... AVAILABLE
   # of basis functions in Aux-J            ...    769
   # of shells in Aux-J                     ...    255
   Maximum angular momentum in Aux-J        ...      4
Auxiliary J/K fitting basis                 ... NOT available
Auxiliary Correlation fitting basis         ... NOT available
Auxiliary 'external' fitting basis          ... NOT available
Integral threshold                          ...     1.000000e-12
Primitive cut-off                           ...     1.000000e-14
Primitive pair pre-selection threshold      ...     1.000000e-14

Calculating pre-screening integrals         ... done (  0.0 sec) Dimension = 215
Organizing shell pair data                  ... done (  0.2 sec)
Shell pair information
Total number of shell pairs                 ...     23220
Shell pairs after pre-screening             ...     20057
Total number of primitive shell pairs       ...     63868
Primitive shell pairs kept                  ...     40554
          la=0 lb=0:   4356 shell pairs
          la=1 lb=0:   5619 shell pairs
          la=1 lb=1:   1844 shell pairs
          la=2 lb=0:   3169 shell pairs
          la=2 lb=1:   2094 shell pairs
          la=2 lb=2:    619 shell pairs
          la=3 lb=0:   1114 shell pairs
          la=3 lb=1:    740 shell pairs
          la=3 lb=2:    417 shell pairs
          la=3 lb=3:     85 shell pairs

Calculating one electron integrals          ... done (  0.0 sec)
Calculating RI/J V-Matrix + Cholesky decomp.... done (  0.3 sec)
Calculating Nuclear repulsion               ... done (  0.0 sec) ENN=    901.218938166364 Eh

SHARK setup successfully completed in   1.2 seconds

Maximum memory used throughout the entire GTOINT-calculation: 31.8 MB


           ************************************************************
           *        Program running with 8 parallel MPI-processes     *
           *              working on a common directory               *
           ************************************************************
-------------------------------------------------------------------------------
                                 ORCA SCF
-------------------------------------------------------------------------------

------------
SCF SETTINGS
------------
Hamiltonian:
 Density Functional     Method          .... DFT(GTOs)
 Exchange Functional    Exchange        .... WB97X-V
 Correlation Functional Correlation     .... WB97X-V
 Gradients option       PostSCFGGA      .... off
 Hybrid DFT is turned on
   Fraction HF Exchange ScalHFX         ....  0.167000
   Scaling of DF-GGA-X  ScalDFX         ....  0.000000
   Scaling of DF-GGA-C  ScalDFC         ....  1.000000
   Scaling of DF-LDA-C  ScalLDAC        ....  1.000000
   Perturbative correction              ....  0.000000
   Density functional embedding theory  .... OFF
 Long-range corrected/Screened/Range-Separated Hybrid DFT is turned on
   Amount of maximum screened exact exchange              ....  0.833000
   Range separation parameter mu (erf(mu*r12)/r12)        ....  0.300000
 RI-approximation to the Coulomb term is turned on
   Number of AuxJ basis functions       .... 769
   RIJ-COSX (HFX calculated with COS-X)).... on


General Settings:
 Integral files         IntName         .... GGG-H_tt_027_OptFreq
 Hartree-Fock type      HFTyp           .... RHF
 Total Charge           Charge          ....    1
 Multiplicity           Mult            ....    1
 Number of Electrons    NEL             ....  100
 Basis Dimension        Dim             ....  571
 Nuclear Repulsion      ENuc            ....    901.2189381664 Eh

Convergence Acceleration:
 DIIS                   CNVDIIS         .... on
   Start iteration      DIISMaxIt       ....    12
   Startup error        DIISStart       ....  0.200000
   # of expansion vecs  DIISMaxEq       ....     5
   Bias factor          DIISBfac        ....   1.050
   Max. coefficient     DIISMaxC        ....  10.000
 Trust-Rad. Augm. Hess. CNVTRAH         .... auto
   Auto Start mean grad. ratio tolernc. ....  1.125000
   Auto Start start iteration           ....    20
   Auto Start num. interpolation iter.  ....    10
   Max. Number of Micro iterations      ....    16
   Max. Number of Macro iterations      .... Maxiter - #DIIS iter
   Number of Davidson start vectors     ....     2
   Converg. threshold I  (grad. norm)   ....   2.000e-06
   Converg. threshold II (energy diff.) ....   1.000e-09
   Grad. Scal. Fac. for Micro threshold ....   0.100
   Minimum threshold for Micro iter.    ....   0.010
   NR start threshold (gradient norm)   ....   0.001
   Initial trust radius                 ....   0.400
   Minimum AH scaling param. (alpha)    ....   1.000
   Maximum AH scaling param. (alpha)    .... 1000.000
   Orbital update algorithm             .... Taylor
   White noise on init. David. guess    .... on
   Maximum white noise                  ....   0.010
   Quad. conv. algorithm                .... NR
 SOSCF                  CNVSOSCF        .... on
   Start iteration      SOSCFMaxIt      ....   150
   Startup grad/error   SOSCFStart      ....  0.003300
 Level Shifting         CNVShift        .... on
   Level shift para.    LevelShift      ....    0.2500
   Turn off err/grad.   ShiftErr        ....    0.0010
 Zerner damping         CNVZerner       .... off
 Static damping         CNVDamp         .... on
   Fraction old density DampFac         ....    0.7000
   Max. Damping (<1)    DampMax         ....    0.9800
   Min. Damping (>=0)   DampMin         ....    0.0000
   Turn off err/grad.   DampErr         ....    0.1000
 Fernandez-Rico         CNVRico         .... off

SCF Procedure:
 Maximum # iterations   MaxIter         ....   125
 SCF integral mode      SCFMode         .... Direct
   Integral package                     .... SHARK and LIBINT hybrid scheme
 Reset frequency        DirectResetFreq ....    20
 Integral Threshold     Thresh          ....  1.000e-12 Eh
 Primitive CutOff       TCut            ....  1.000e-14 Eh

Convergence Tolerance:
 Convergence Check Mode ConvCheckMode   .... Total+1el-Energy
 Convergence forced     ConvForced      .... 0
 Energy Change          TolE            ....  1.000e-09 Eh
 1-El. energy change                    ....  1.000e-06 Eh
 Orbital Gradient       TolG            ....  2.000e-06
 Orbital Rotation angle TolX            ....  2.000e-06
 DIIS Error             TolErr          ....  1.000e-08


Diagonalization of the overlap matrix:
Smallest eigenvalue                        ... 9.953e-05
Time for diagonalization                   ...    0.046 sec
Threshold for overlap eigenvalues          ... 1.000e-08
Number of eigenvalues below threshold      ... 0
Time for construction of square roots      ...    0.076 sec
Total time needed                          ...    0.134 sec

Time for model grid setup =    0.269 sec

------------------------------
INITIAL GUESS: MODEL POTENTIAL
------------------------------
Loading Hartree-Fock densities                     ... done
Calculating cut-offs                               ... done
Initializing the effective Hamiltonian             ... done
Setting up the integral package (SHARK)            ... done
Starting the Coulomb interaction                   ... done (   0.6 sec)
Reading the grid                                   ... done
Mapping shells                                     ... done
Starting the XC term evaluation                    ... done (   0.1 sec)
  promolecular density results
     # of electrons  =    100.995029888
     EX              =    -58.969144059
     EC              =     -4.271735478
     EX+EC           =    -63.240879537
Transforming the Hamiltonian                       ... done (   0.1 sec)
Diagonalizing the Hamiltonian                      ... done (   0.1 sec)
Back transforming the eigenvectors                 ... done (   0.0 sec)
Now organizing SCF variables                       ... done
                      ------------------
                      INITIAL GUESS DONE (   1.3 sec)
                      ------------------
-------------------
DFT GRID GENERATION
-------------------

General Integration Accuracy     IntAcc      ... 4.959
Radial Grid Type                 RadialGrid  ... OptM3 with GC (2021)
Angular Grid (max. ang.)         AngularGrid ... 6 (Lebedev-590)
Angular grid pruning method      GridPruning ... 4 (adaptive)
Weight generation scheme         WeightScheme... Becke
Basis function cutoff            BFCut       ... 1.0000e-12
Integration weight cutoff        WCut        ... 1.0000e-14
Angular grids for H and He will be reduced by one unit
Partially contracted basis set               ... off
Rotationally invariant grid construction     ... off

Total number of grid points                  ...   288292
Total number of batches                      ...     4516
Average number of points per batch           ...       63
Average number of grid points per atom       ...    11532
Time for grid setup =    3.330 sec

--------------------
COSX GRID GENERATION
--------------------

GRIDX 1
-------
General Integration Accuracy     IntAcc      ... 4.020
Radial Grid Type                 RadialGrid  ... OptM3 with GC (2021)
Angular Grid (max. ang.)         AngularGrid ... 2 (Lebedev-110)
Angular grid pruning method      GridPruning ... 4 (adaptive)
Weight generation scheme         WeightScheme... Becke
Basis function cutoff            BFCut       ... 1.0000e-12
Integration weight cutoff        WCut        ... 1.0000e-14
Angular grids for H and He will be reduced by one unit
Partially contracted basis set               ... on
Rotationally invariant grid construction     ... off

Total number of grid points                  ...    32070
Total number of batches                      ...      511
Average number of points per batch           ...       62
Average number of grid points per atom       ...     1283
UseSFitting                                  ... on

GRIDX 2
-------
General Integration Accuracy     IntAcc      ... 4.338
Radial Grid Type                 RadialGrid  ... OptM3 with GC (2021)
Angular Grid (max. ang.)         AngularGrid ... 3 (Lebedev-194)
Angular grid pruning method      GridPruning ... 4 (adaptive)
Weight generation scheme         WeightScheme... Becke
Basis function cutoff            BFCut       ... 1.0000e-12
Integration weight cutoff        WCut        ... 1.0000e-14
Angular grids for H and He will be reduced by one unit
Partially contracted basis set               ... on
Rotationally invariant grid construction     ... off

Total number of grid points                  ...    70194
Total number of batches                      ...     1110
Average number of points per batch           ...       63
Average number of grid points per atom       ...     2808
UseSFitting                                  ... on

GRIDX 3
-------
General Integration Accuracy     IntAcc      ... 4.871
Radial Grid Type                 RadialGrid  ... OptM3 with GC (2021)
Angular Grid (max. ang.)         AngularGrid ... 4 (Lebedev-302)
Angular grid pruning method      GridPruning ... 4 (adaptive)
Weight generation scheme         WeightScheme... Becke
Basis function cutoff            BFCut       ... 1.0000e-12
Integration weight cutoff        WCut        ... 1.0000e-14
Angular grids for H and He will be reduced by one unit
Partially contracted basis set               ... on
Rotationally invariant grid construction     ... off

Total number of grid points                  ...   132857
Total number of batches                      ...     2088
Average number of points per batch           ...       63
Average number of grid points per atom       ...     5314
UseSFitting                                  ... on

Time for X-Grid setup             =    2.321 sec

--------------
SCF ITERATIONS
--------------
ITER       Energy         Delta-E        Max-DP      RMS-DP      [F,P]     Damp
               ***  Starting incremental Fock matrix formation  ***
  0   -701.1602051443   0.000000000000 0.09226174  0.00052682  0.3427269 0.7000
  1   -701.2064812036  -0.046276059252 0.08386463  0.00048138  0.2343410 0.7000
                               ***Turning on DIIS***
  2   -701.2336167837  -0.027135580081 0.06558652  0.00037608  0.1626917 0.7000
  3   -701.2515291596  -0.017912375960 0.05113551  0.00029900  0.1121768 0.7000
  4   -701.2641181865  -0.012589026838 0.12941702  0.00078384  0.0774565 0.0000
                      *** Initiating the SOSCF procedure ***
                           *** Shutting down DIIS ***
                      *** Re-Reading the Fockian *** 
                      *** Removing any level shift *** 
ITER      Energy       Delta-E        Grad      Rot      Max-DP    RMS-DP
  5   -701.29453296  -0.0304147721  0.001364  0.001364  0.007966  0.000076
               *** Restarting incremental Fock matrix formation ***
  6   -701.29467440  -0.0001414410  0.000891  0.002000  0.004121  0.000045
  7   -701.29471527  -0.0000408668  0.000418  0.001667  0.002710  0.000033
  8   -701.29472512  -0.0000098534  0.000256  0.000373  0.000816  0.000010
  9   -701.29472729  -0.0000021740  0.000094  0.000088  0.000531  0.000006
 10   -701.29472752  -0.0000002227  0.000033  0.000064  0.000167  0.000002
 11   -701.29472766  -0.0000001392  0.000011  0.000032  0.000020  0.000000
 12   -701.29472766  -0.0000000055  0.000005  0.000011  0.000025  0.000000
 13   -701.29472766  -0.0000000030  0.000002  0.000007  0.000010  0.000000
 14   -701.29472766   0.0000000001  0.000002  0.000004  0.000003  0.000000
 15   -701.29472766  -0.0000000001  0.000001  0.000002  0.000002  0.000000
                  ***Gradient check signals convergence***
              ***Rediagonalizing the Fockian in SOSCF/NRSCF***

               *****************************************************
               *                     SUCCESS                       *
               *           SCF CONVERGED AFTER  16 CYCLES          *
               *****************************************************

Old exchange energy                            =    -27.831964249 Eh
New exchange energy                            =    -27.831961274 Eh
Exchange energy change after final integration =      0.000002976 Eh
Total energy after final integration           =   -701.294724688 Eh
Final COS-X integration done in                =    34.807 sec

----------------
TOTAL SCF ENERGY
----------------

Total Energy       :         -701.29472469 Eh          -19083.19963 eV

Components:
Nuclear Repulsion  :          901.21893817 Eh           24523.41405 eV
Electronic Energy  :        -1602.51366285 Eh          -43606.61368 eV
One Electron Energy:        -2730.71632312 Eh          -74306.56883 eV
Two Electron Energy:         1128.20266027 Eh           30699.95514 eV
Max COSX asymmetry :            0.00000094 Eh               0.00003 eV

Virial components:
Potential Energy   :        -1399.26254022 Eh          -38075.86946 eV
Kinetic Energy     :          697.96781554 Eh           18992.66983 eV
Virial Ratio       :            2.00476657


DFT components:
N(Alpha)           :       49.999998654512 electrons
N(Beta)            :       49.999998654512 electrons
N(Total)           :       99.999997309024 electrons
E(X)               :      -60.046505008920 Eh       
E(C)               :       -4.267861090460 Eh       
E(XC)              :      -64.314366099380 Eh       
DFET-embed. en.    :        0.000000000000 Eh       

---------------
SCF CONVERGENCE
---------------

  Last Energy change         ...    7.7955e-10  Tolerance :   1.0000e-09
  Last MAX-Density change    ...    1.8874e-15  Tolerance :   1.0000e-08
  Last RMS-Density change    ...    1.3113e-17  Tolerance :   1.0000e-09
  Last Orbital Gradient      ...    1.7327e-07  Tolerance :   2.0000e-06
  Last Orbital Rotation      ...    9.4539e-07  Tolerance :   2.0000e-06

             **** THE GBW FILE WAS UPDATED (GGG-H_tt_027_OptFreq.gbw) ****
             **** DENSITY GGG-H_tt_027_OptFreq.scfp WAS UPDATED ****
             **** ENERGY FILE WAS UPDATED (GGG-H_tt_027_OptFreq.en.tmp) ****
             **** THE GBW FILE WAS UPDATED (GGG-H_tt_027_OptFreq.gbw) ****
             **** DENSITY GGG-H_tt_027_OptFreq.scfp WAS UPDATED ****
----------------
ORBITAL ENERGIES
----------------

  NO   OCC          E(Eh)            E(eV) 
   0   2.0000     -19.412127      -528.2308 
   1   2.0000     -19.353950      -526.6478 
   2   2.0000     -19.345225      -526.4103 
   3   2.0000     -19.339640      -526.2584 
   4   2.0000     -14.676201      -399.3597 
   5   2.0000     -14.604533      -397.4095 
   6   2.0000     -14.589681      -397.0054 
   7   2.0000     -10.566619      -287.5323 
   8   2.0000     -10.541856      -286.8585 
   9   2.0000     -10.536749      -286.7195 
  10   2.0000     -10.500322      -285.7283 
  11   2.0000     -10.484735      -285.3041 
  12   2.0000     -10.470516      -284.9172 
  13   2.0000      -1.388690       -37.7882 
  14   2.0000      -1.340992       -36.4903 
  15   2.0000      -1.325850       -36.0782 
  16   2.0000      -1.301980       -35.4287 
  17   2.0000      -1.273086       -34.6424 
  18   2.0000      -1.219936       -33.1961 
  19   2.0000      -1.209504       -32.9123 
  20   2.0000      -1.051893       -28.6235 
  21   2.0000      -1.027916       -27.9710 
  22   2.0000      -0.980707       -26.6864 
  23   2.0000      -0.896592       -24.3975 
  24   2.0000      -0.878318       -23.9002 
  25   2.0000      -0.870818       -23.6962 
  26   2.0000      -0.846960       -23.0469 
  27   2.0000      -0.834985       -22.7211 
  28   2.0000      -0.810421       -22.0527 
  29   2.0000      -0.797217       -21.6934 
  30   2.0000      -0.786072       -21.3901 
  31   2.0000      -0.767770       -20.8921 
  32   2.0000      -0.749893       -20.4056 
  33   2.0000      -0.732576       -19.9344 
  34   2.0000      -0.725993       -19.7553 
  35   2.0000      -0.713815       -19.4239 
  36   2.0000      -0.703869       -19.1533 
  37   2.0000      -0.686210       -18.6727 
  38   2.0000      -0.675147       -18.3717 
  39   2.0000      -0.670441       -18.2436 
  40   2.0000      -0.653281       -17.7767 
  41   2.0000      -0.645853       -17.5746 
  42   2.0000      -0.636249       -17.3132 
  43   2.0000      -0.626828       -17.0569 
  44   2.0000      -0.580864       -15.8061 
  45   2.0000      -0.555082       -15.1045 
  46   2.0000      -0.540594       -14.7103 
  47   2.0000      -0.528795       -14.3892 
  48   2.0000      -0.526603       -14.3296 
  49   2.0000      -0.509088       -13.8530 
  50   0.0000      -0.083136        -2.2622 
  51   0.0000      -0.063343        -1.7237 
  52   0.0000      -0.057819        -1.5733 
  53   0.0000      -0.045831        -1.2471 
  54   0.0000      -0.028936        -0.7874 
  55   0.0000      -0.019732        -0.5369 
  56   0.0000      -0.012707        -0.3458 
  57   0.0000       0.016335         0.4445 
  58   0.0000       0.025373         0.6904 
  59   0.0000       0.031341         0.8528 
  60   0.0000       0.033791         0.9195 
  61   0.0000       0.054822         1.4918 
  62   0.0000       0.060855         1.6560 
  63   0.0000       0.075136         2.0445 
  64   0.0000       0.081120         2.2074 
  65   0.0000       0.087491         2.3807 
  66   0.0000       0.092742         2.5236 
  67   0.0000       0.103941         2.8284 
  68   0.0000       0.113110         3.0779 
  69   0.0000       0.119106         3.2410 
  70   0.0000       0.122527         3.3341 
  71   0.0000       0.125618         3.4182 
  72   0.0000       0.139779         3.8036 
  73   0.0000       0.144189         3.9236 
  74   0.0000       0.150707         4.1010 
  75   0.0000       0.170221         4.6319 
  76   0.0000       0.177595         4.8326 
  77   0.0000       0.197012         5.3610 
  78   0.0000       0.206653         5.6233 
  79   0.0000       0.218309         5.9405 
  80   0.0000       0.225327         6.1315 
  81   0.0000       0.227440         6.1890 
  82   0.0000       0.244171         6.6442 
  83   0.0000       0.247238         6.7277 
  84   0.0000       0.253281         6.8921 
  85   0.0000       0.265516         7.2251 
  86   0.0000       0.271074         7.3763 
  87   0.0000       0.281966         7.6727 
  88   0.0000       0.285541         7.7700 
  89   0.0000       0.299786         8.1576 
  90   0.0000       0.310226         8.4417 
  91   0.0000       0.317371         8.6361 
  92   0.0000       0.318482         8.6663 
  93   0.0000       0.321100         8.7376 
  94   0.0000       0.326096         8.8735 
  95   0.0000       0.332841         9.0571 
  96   0.0000       0.343752         9.3540 
  97   0.0000       0.349520         9.5109 
  98   0.0000       0.353081         9.6078 
  99   0.0000       0.356796         9.7089 
 100   0.0000       0.366855         9.9826 
 101   0.0000       0.375401        10.2152 
 102   0.0000       0.376024        10.2321 
 103   0.0000       0.382226        10.4009 
 104   0.0000       0.386043        10.5048 
 105   0.0000       0.395889        10.7727 
 106   0.0000       0.398744        10.8504 
 107   0.0000       0.411613        11.2005 
 108   0.0000       0.424426        11.5492 
 109   0.0000       0.433797        11.8042 
 110   0.0000       0.437203        11.8969 
 111   0.0000       0.452657        12.3174 
 112   0.0000       0.458108        12.4657 
 113   0.0000       0.464278        12.6336 
 114   0.0000       0.477935        13.0053 
 115   0.0000       0.487530        13.2664 
 116   0.0000       0.490593        13.3497 
 117   0.0000       0.492485        13.4012 
 118   0.0000       0.502743        13.6803 
 119   0.0000       0.513491        13.9728 
 120   0.0000       0.519080        14.1249 
 121   0.0000       0.535469        14.5709 
 122   0.0000       0.547914        14.9095 
 123   0.0000       0.559033        15.2121 
 124   0.0000       0.569845        15.5063 
 125   0.0000       0.577984        15.7277 
 126   0.0000       0.595090        16.1932 
 127   0.0000       0.614515        16.7218 
 128   0.0000       0.630378        17.1534 
 129   0.0000       0.635900        17.3037 
 130   0.0000       0.649938        17.6857 
 131   0.0000       0.655892        17.8477 
 132   0.0000       0.665553        18.1106 
 133   0.0000       0.673757        18.3339 
 134   0.0000       0.693736        18.8775 
 135   0.0000       0.710504        19.3338 
 136   0.0000       0.716447        19.4955 
 137   0.0000       0.724126        19.7045 
 138   0.0000       0.727386        19.7932 
 139   0.0000       0.739759        20.1299 
 140   0.0000       0.746333        20.3087 
 141   0.0000       0.769094        20.9281 
 142   0.0000       0.776033        21.1169 
 143   0.0000       0.789323        21.4786 
 144   0.0000       0.790424        21.5085 
 145   0.0000       0.810155        22.0454 
 146   0.0000       0.819412        22.2973 
 147   0.0000       0.837762        22.7967 
 148   0.0000       0.849026        23.1032 
 149   0.0000       0.850739        23.1498 
 150   0.0000       0.861721        23.4486 
 151   0.0000       0.867045        23.5935 
 152   0.0000       0.875653        23.8277 
 153   0.0000       0.885216        24.0880 
 154   0.0000       0.901784        24.5388 
 155   0.0000       0.911701        24.8087 
 156   0.0000       0.914165        24.8757 
 157   0.0000       0.930768        25.3275 
 158   0.0000       0.936667        25.4880 
 159   0.0000       0.957443        26.0533 
 160   0.0000       0.960536        26.1375 
 161   0.0000       0.971408        26.4333 
 162   0.0000       0.978267        26.6200 
 163   0.0000       0.986807        26.8524 
 164   0.0000       1.005460        27.3600 
 165   0.0000       1.010485        27.4967 
 166   0.0000       1.017201        27.6794 
 167   0.0000       1.023382        27.8476 
 168   0.0000       1.034961        28.1627 
 169   0.0000       1.051554        28.6142 
 170   0.0000       1.061480        28.8844 
 171   0.0000       1.077242        29.3132 
 172   0.0000       1.090723        29.6801 
 173   0.0000       1.104729        30.0612 
 174   0.0000       1.109913        30.2023 
 175   0.0000       1.115972        30.3672 
 176   0.0000       1.121538        30.5186 
 177   0.0000       1.134921        30.8828 
 178   0.0000       1.144199        31.1352 
 179   0.0000       1.151412        31.3315 
 180   0.0000       1.168705        31.8021 
 181   0.0000       1.183336        32.2002 
 182   0.0000       1.187912        32.3247 
 183   0.0000       1.195519        32.5317 
 184   0.0000       1.203402        32.7462 
 185   0.0000       1.218629        33.1606 
 186   0.0000       1.237153        33.6647 
 187   0.0000       1.243557        33.8389 
 188   0.0000       1.248237        33.9663 
 189   0.0000       1.259967        34.2855 
 190   0.0000       1.279852        34.8265 
 191   0.0000       1.289742        35.0957 
 192   0.0000       1.305833        35.5335 
 193   0.0000       1.312565        35.7167 
 194   0.0000       1.329261        36.1710 
 195   0.0000       1.339877        36.4599 
 196   0.0000       1.366349        37.1802 
 197   0.0000       1.374894        37.4128 
 198   0.0000       1.377273        37.4775 
 199   0.0000       1.392697        37.8972 
 200   0.0000       1.401673        38.1415 
 201   0.0000       1.408312        38.3221 
 202   0.0000       1.417261        38.5656 
 203   0.0000       1.420576        38.6558 
 204   0.0000       1.429834        38.9078 
 205   0.0000       1.433216        38.9998 
 206   0.0000       1.438446        39.1421 
 207   0.0000       1.458689        39.6930 
 208   0.0000       1.459705        39.7206 
 209   0.0000       1.479109        40.2486 
 210   0.0000       1.508509        41.0486 
 211   0.0000       1.516600        41.2688 
 212   0.0000       1.524147        41.4741 
 213   0.0000       1.531050        41.6620 
 214   0.0000       1.543065        41.9889 
 215   0.0000       1.556368        42.3509 
 216   0.0000       1.558936        42.4208 
 217   0.0000       1.573502        42.8172 
 218   0.0000       1.596785        43.4507 
 219   0.0000       1.613783        43.9133 
 220   0.0000       1.624012        44.1916 
 221   0.0000       1.635886        44.5147 
 222   0.0000       1.660408        45.1820 
 223   0.0000       1.670453        45.4553 
 224   0.0000       1.694066        46.0979 
 225   0.0000       1.695189        46.1284 
 226   0.0000       1.706297        46.4307 
 227   0.0000       1.719135        46.7801 
 228   0.0000       1.736281        47.2466 
 229   0.0000       1.750601        47.6363 
 230   0.0000       1.769184        48.1420 
 231   0.0000       1.781386        48.4740 
 232   0.0000       1.813082        49.3365 
 233   0.0000       1.842382        50.1338 
 234   0.0000       1.854905        50.4745 
 235   0.0000       1.874943        51.0198 
 236   0.0000       1.878182        51.1079 
 237   0.0000       1.900903        51.7262 
 238   0.0000       1.915566        52.1252 
 239   0.0000       1.930527        52.5323 
 240   0.0000       1.943580        52.8875 
 241   0.0000       1.970999        53.6336 
 242   0.0000       1.980341        53.8878 
 243   0.0000       2.001685        54.4686 
 244   0.0000       2.013859        54.7999 
 245   0.0000       2.031745        55.2866 
 246   0.0000       2.038624        55.4738 
 247   0.0000       2.081220        56.6329 
 248   0.0000       2.092813        56.9483 
 249   0.0000       2.104174        57.2575 
 250   0.0000       2.119023        57.6616 
 251   0.0000       2.150189        58.5096 
 252   0.0000       2.166766        58.9607 
 253   0.0000       2.191171        59.6248 
 254   0.0000       2.211923        60.1895 
 255   0.0000       2.232432        60.7476 
 256   0.0000       2.238088        60.9015 
 257   0.0000       2.246196        61.1221 
 258   0.0000       2.267501        61.7018 
 259   0.0000       2.299489        62.5723 
 260   0.0000       2.317372        63.0589 
 261   0.0000       2.321172        63.1623 
 262   0.0000       2.331552        63.4447 
 263   0.0000       2.354773        64.0766 
 264   0.0000       2.369373        64.4739 
 265   0.0000       2.391526        65.0767 
 266   0.0000       2.425214        65.9934 
 267   0.0000       2.437903        66.3387 
 268   0.0000       2.456044        66.8323 
 269   0.0000       2.465390        67.0867 
 270   0.0000       2.481703        67.5306 
 271   0.0000       2.504724        68.1570 
 272   0.0000       2.506113        68.1948 
 273   0.0000       2.545444        69.2651 
 274   0.0000       2.549339        69.3711 
 275   0.0000       2.556575        69.5679 
 276   0.0000       2.573191        70.0201 
 277   0.0000       2.581708        70.2518 
 278   0.0000       2.597156        70.6722 
 279   0.0000       2.615164        71.1622 
 280   0.0000       2.625367        71.4399 
 281   0.0000       2.646722        72.0210 
 282   0.0000       2.655510        72.2601 
 283   0.0000       2.668972        72.6264 
 284   0.0000       2.672376        72.7190 
 285   0.0000       2.693375        73.2905 
 286   0.0000       2.700259        73.4778 
 287   0.0000       2.717991        73.9603 
 288   0.0000       2.724934        74.1492 
 289   0.0000       2.739692        74.5508 
 290   0.0000       2.740341        74.5685 
 291   0.0000       2.763266        75.1923 
 292   0.0000       2.777333        75.5751 
 293   0.0000       2.808984        76.4363 
 294   0.0000       2.822119        76.7938 
 295   0.0000       2.829282        76.9887 
 296   0.0000       2.840760        77.3010 
 297   0.0000       2.846950        77.4694 
 298   0.0000       2.874368        78.2155 
 299   0.0000       2.896711        78.8235 
 300   0.0000       2.906259        79.0833 
 301   0.0000       2.910395        79.1959 
 302   0.0000       2.926662        79.6385 
 303   0.0000       2.937668        79.9380 
 304   0.0000       2.942788        80.0773 
 305   0.0000       2.959541        80.5332 
 306   0.0000       2.963488        80.6406 
 307   0.0000       2.969168        80.7952 
 308   0.0000       2.976604        80.9975 
 309   0.0000       2.983937        81.1971 
 310   0.0000       2.989386        81.3453 
 311   0.0000       3.003642        81.7333 
 312   0.0000       3.014513        82.0291 
 313   0.0000       3.027979        82.3955 
 314   0.0000       3.034631        82.5765 
 315   0.0000       3.041820        82.7721 
 316   0.0000       3.053531        83.0908 
 317   0.0000       3.058007        83.2126 
 318   0.0000       3.083679        83.9112 
 319   0.0000       3.094113        84.1951 
 320   0.0000       3.107338        84.5550 
 321   0.0000       3.112845        84.7048 
 322   0.0000       3.121279        84.9343 
 323   0.0000       3.125664        85.0536 
 324   0.0000       3.139025        85.4172 
 325   0.0000       3.140746        85.4640 
 326   0.0000       3.142382        85.5086 
 327   0.0000       3.155481        85.8650 
 328   0.0000       3.170033        86.2610 
 329   0.0000       3.180862        86.5557 
 330   0.0000       3.199262        87.0563 
 331   0.0000       3.210556        87.3637 
 332   0.0000       3.218598        87.5825 
 333   0.0000       3.223236        87.7087 
 334   0.0000       3.240123        88.1682 
 335   0.0000       3.255825        88.5955 
 336   0.0000       3.266997        88.8995 
 337   0.0000       3.283312        89.3434 
 338   0.0000       3.288395        89.4818 
 339   0.0000       3.303815        89.9014 
 340   0.0000       3.307957        90.0141 
 341   0.0000       3.323249        90.4302 
 342   0.0000       3.328090        90.5619 
 343   0.0000       3.349058        91.1325 
 344   0.0000       3.353462        91.2524 
 345   0.0000       3.371173        91.7343 
 346   0.0000       3.374673        91.8295 
 347   0.0000       3.379195        91.9526 
 348   0.0000       3.386571        92.1533 
 349   0.0000       3.395435        92.3945 
 350   0.0000       3.403553        92.6154 
 351   0.0000       3.424332        93.1808 
 352   0.0000       3.426380        93.2366 
 353   0.0000       3.438912        93.5775 
 354   0.0000       3.456666        94.0607 
 355   0.0000       3.458230        94.1032 
 356   0.0000       3.466934        94.3401 
 357   0.0000       3.472144        94.4818 
 358   0.0000       3.490496        94.9812 
 359   0.0000       3.494667        95.0947 
 360   0.0000       3.498828        95.2080 
 361   0.0000       3.522252        95.8453 
 362   0.0000       3.544622        96.4541 
 363   0.0000       3.552512        96.6688 
 364   0.0000       3.559169        96.8499 
 365   0.0000       3.566102        97.0386 
 366   0.0000       3.573381        97.2366 
 367   0.0000       3.585990        97.5798 
 368   0.0000       3.589785        97.6830 
 369   0.0000       3.600961        97.9871 
 370   0.0000       3.609606        98.2224 
 371   0.0000       3.612483        98.3007 
 372   0.0000       3.639295        99.0302 
 373   0.0000       3.650426        99.3331 
 374   0.0000       3.676720       100.0486 
 375   0.0000       3.686640       100.3186 
 376   0.0000       3.690623       100.4270 
 377   0.0000       3.699954       100.6809 
 378   0.0000       3.706529       100.8598 
 379   0.0000       3.726580       101.4054 
 380   0.0000       3.753860       102.1477 
 381   0.0000       3.770277       102.5945 
 382   0.0000       3.778573       102.8202 
 383   0.0000       3.793895       103.2371 
 384   0.0000       3.799373       103.3862 
 385   0.0000       3.811782       103.7239 
 386   0.0000       3.817573       103.8814 
 387   0.0000       3.829548       104.2073 
 388   0.0000       3.842600       104.5624 
 389   0.0000       3.862141       105.0942 
 390   0.0000       3.874337       105.4261 
 391   0.0000       3.887149       105.7747 
 392   0.0000       3.898648       106.0876 
 393   0.0000       3.905004       106.2606 
 394   0.0000       3.921469       106.7086 
 395   0.0000       3.946932       107.4015 
 396   0.0000       3.961737       107.8044 
 397   0.0000       3.964899       107.8904 
 398   0.0000       3.979290       108.2820 
 399   0.0000       3.989510       108.5601 
 400   0.0000       3.994844       108.7052 
 401   0.0000       4.019720       109.3821 
 402   0.0000       4.022660       109.4621 
 403   0.0000       4.032804       109.7382 
 404   0.0000       4.041656       109.9790 
 405   0.0000       4.074379       110.8695 
 406   0.0000       4.091858       111.3451 
 407   0.0000       4.101762       111.6146 
 408   0.0000       4.112210       111.8989 
 409   0.0000       4.118925       112.0817 
 410   0.0000       4.134933       112.5172 
 411   0.0000       4.150714       112.9467 
 412   0.0000       4.160286       113.2071 
 413   0.0000       4.169381       113.4546 
 414   0.0000       4.177416       113.6733 
 415   0.0000       4.192487       114.0834 
 416   0.0000       4.213227       114.6477 
 417   0.0000       4.223066       114.9155 
 418   0.0000       4.237850       115.3178 
 419   0.0000       4.250605       115.6648 
 420   0.0000       4.259422       115.9048 
 421   0.0000       4.276201       116.3613 
 422   0.0000       4.279480       116.4506 
 423   0.0000       4.306292       117.1802 
 424   0.0000       4.319542       117.5407 
 425   0.0000       4.341060       118.1262 
 426   0.0000       4.347282       118.2956 
 427   0.0000       4.369639       118.9039 
 428   0.0000       4.390015       119.4584 
 429   0.0000       4.426983       120.4643 
 430   0.0000       4.437012       120.7372 
 431   0.0000       4.451456       121.1303 
 432   0.0000       4.464338       121.4808 
 433   0.0000       4.491266       122.2136 
 434   0.0000       4.506310       122.6229 
 435   0.0000       4.537054       123.4595 
 436   0.0000       4.544311       123.6570 
 437   0.0000       4.565916       124.2449 
 438   0.0000       4.576654       124.5371 
 439   0.0000       4.586089       124.7938 
 440   0.0000       4.606223       125.3417 
 441   0.0000       4.622078       125.7731 
 442   0.0000       4.646934       126.4495 
 443   0.0000       4.663890       126.9109 
 444   0.0000       4.671003       127.1045 
 445   0.0000       4.696586       127.8006 
 446   0.0000       4.709344       128.1478 
 447   0.0000       4.721554       128.4800 
 448   0.0000       4.731633       128.7543 
 449   0.0000       4.752097       129.3111 
 450   0.0000       4.762542       129.5954 
 451   0.0000       4.771597       129.8418 
 452   0.0000       4.781268       130.1049 
 453   0.0000       4.820274       131.1663 
 454   0.0000       4.854462       132.0966 
 455   0.0000       4.870377       132.5297 
 456   0.0000       4.880404       132.8025 
 457   0.0000       4.917920       133.8234 
 458   0.0000       4.920372       133.8901 
 459   0.0000       4.949439       134.6811 
 460   0.0000       4.967155       135.1632 
 461   0.0000       4.968773       135.2072 
 462   0.0000       4.980857       135.5360 
 463   0.0000       5.002702       136.1305 
 464   0.0000       5.032183       136.9327 
 465   0.0000       5.050565       137.4329 
 466   0.0000       5.064855       137.8217 
 467   0.0000       5.074929       138.0958 
 468   0.0000       5.096090       138.6717 
 469   0.0000       5.106938       138.9669 
 470   0.0000       5.123634       139.4212 
 471   0.0000       5.131511       139.6355 
 472   0.0000       5.142160       139.9253 
 473   0.0000       5.155646       140.2923 
 474   0.0000       5.166993       140.6010 
 475   0.0000       5.175881       140.8429 
 476   0.0000       5.192971       141.3079 
 477   0.0000       5.199445       141.4841 
 478   0.0000       5.225077       142.1816 
 479   0.0000       5.232997       142.3971 
 480   0.0000       5.251318       142.8956 
 481   0.0000       5.261141       143.1629 
 482   0.0000       5.271837       143.4540 
 483   0.0000       5.305320       144.3651 
 484   0.0000       5.312994       144.5739 
 485   0.0000       5.333597       145.1346 
 486   0.0000       5.345819       145.4671 
 487   0.0000       5.348701       145.5456 
 488   0.0000       5.382365       146.4616 
 489   0.0000       5.406132       147.1083 
 490   0.0000       5.423170       147.5720 
 491   0.0000       5.455918       148.4631 
 492   0.0000       5.471010       148.8737 
 493   0.0000       5.495565       149.5419 
 494   0.0000       5.515349       150.0803 
 495   0.0000       5.525832       150.3655 
 496   0.0000       5.540781       150.7723 
 497   0.0000       5.543646       150.8503 
 498   0.0000       5.552830       151.1002 
 499   0.0000       5.570710       151.5867 
 500   0.0000       5.572735       151.6418 
 501   0.0000       5.593062       152.1950 
 502   0.0000       5.624068       153.0387 
 503   0.0000       5.633441       153.2937 
 504   0.0000       5.654128       153.8566 
 505   0.0000       5.696312       155.0045 
 506   0.0000       5.702022       155.1599 
 507   0.0000       5.724726       155.7777 
 508   0.0000       5.755467       156.6142 
 509   0.0000       5.795859       157.7133 
 510   0.0000       5.810680       158.1166 
 511   0.0000       5.850418       159.1980 
 512   0.0000       5.852090       159.2435 
 513   0.0000       5.876650       159.9118 
 514   0.0000       5.910146       160.8232 
 515   0.0000       5.939618       161.6252 
 516   0.0000       5.966590       162.3592 
 517   0.0000       5.990849       163.0193 
 518   0.0000       6.013933       163.6474 
 519   0.0000       6.088897       165.6873 
 520   0.0000       6.111943       166.3144 
 521   0.0000       6.132275       166.8677 
 522   0.0000       6.170289       167.9021 
 523   0.0000       6.223426       169.3480 
 524   0.0000       6.297555       171.3652 
 525   0.0000       6.318531       171.9360 
 526   0.0000       6.330755       172.2686 
 527   0.0000       6.360811       173.0865 
 528   0.0000       6.379680       173.5999 
 529   0.0000       6.419780       174.6911 
 530   0.0000       6.426389       174.8709 
 531   0.0000       6.430911       174.9940 
 532   0.0000       6.465096       175.9242 
 533   0.0000       6.484744       176.4588 
 534   0.0000       6.498566       176.8350 
 535   0.0000       6.522966       177.4989 
 536   0.0000       6.552515       178.3030 
 537   0.0000       6.567779       178.7184 
 538   0.0000       6.615946       180.0290 
 539   0.0000       6.645321       180.8284 
 540   0.0000       6.693511       182.1397 
 541   0.0000       6.720602       182.8769 
 542   0.0000       6.731308       183.1682 
 543   0.0000       6.746826       183.5905 
 544   0.0000       6.787553       184.6987 
 545   0.0000       6.844563       186.2500 
 546   0.0000       6.855180       186.5389 
 547   0.0000       6.953691       189.2195 
 548   0.0000       6.980644       189.9530 
 549   0.0000       6.990008       190.2078 
 550   0.0000       7.016052       190.9165 
 551   0.0000       7.068063       192.3318 
 552   0.0000       7.088602       192.8907 
 553   0.0000       7.111594       193.5163 
 554   0.0000       7.177707       195.3153 
 555   0.0000       7.206433       196.0970 
 556   0.0000       7.359024       200.2492 
 557   0.0000       7.470512       203.2830 
 558   0.0000      23.167147       630.4101 
 559   0.0000      23.185673       630.9142 
 560   0.0000      23.207838       631.5174 
 561   0.0000      23.263906       633.0431 
 562   0.0000      23.307760       634.2364 
 563   0.0000      23.374458       636.0513 
 564   0.0000      32.746872       891.0877 
 565   0.0000      32.772939       891.7970 
 566   0.0000      32.892479       895.0498 
 567   0.0000      43.850089      1193.2216 
 568   0.0000      43.900815      1194.6019 
 569   0.0000      43.966451      1196.3879 
 570   0.0000      44.020733      1197.8651 

                    ********************************
                    * MULLIKEN POPULATION ANALYSIS *
                    ********************************

-----------------------
MULLIKEN ATOMIC CHARGES
-----------------------
   0 N :   -0.164389
   1 H :    0.201951
   2 C :   -0.127026
   3 C :    0.355444
   4 H :    0.160768
   5 H :    0.146798
   6 O :   -0.360883
   7 C :    0.297470
   8 C :   -0.087891
   9 O :   -0.460754
  10 N :   -0.187285
  11 H :    0.133359
  12 H :    0.147050
  13 H :    0.187016
  14 C :    0.194778
  15 C :   -0.145025
  16 O :   -0.291133
  17 H :    0.170958
  18 H :    0.154766
  19 O :   -0.207112
  20 H :    0.238271
  21 N :   -0.078153
  22 H :    0.235007
  23 H :    0.233271
  24 H :    0.252744
Sum of atomic charges:    1.0000000

--------------------------------
MULLIKEN REDUCED ORBITAL CHARGES
--------------------------------
  0 N s       :     3.408426  s :     3.408426
      pz      :     1.098703  p :     3.696079
      px      :     1.501923
      py      :     1.095453
      dz2     :     0.012985  d :     0.055980
      dxz     :     0.009558
      dyz     :     0.018722
      dx2y2   :     0.008574
      dxy     :     0.006140
      f0      :     0.000493  f :     0.003905
      f+1     :     0.000643
      f-1     :     0.000705
      f+2     :     0.000615
      f-2     :     0.000394
      f+3     :     0.000477
      f-3     :     0.000577
  1 H s       :     0.731386  s :     0.731386
      pz      :     0.017074  p :     0.061352
      px      :     0.023452
      py      :     0.020826
      dz2     :     0.001012  d :     0.005311
      dxz     :     0.000554
      dyz     :     0.001242
      dx2y2   :     0.000934
      dxy     :     0.001569
  2 C s       :     3.185663  s :     3.185663
      pz      :     0.829089  p :     2.825848
      px      :     0.919680
      py      :     1.077078
      dz2     :     0.025312  d :     0.107843
      dxz     :     0.029456
      dyz     :     0.019536
      dx2y2   :     0.018542
      dxy     :     0.014998
      f0      :     0.002158  f :     0.007671
      f+1     :     0.001755
      f-1     :     0.000924
      f+2     :     0.000841
      f-2     :     0.000838
      f+3     :     0.000429
      f-3     :     0.000727
  3 C s       :     3.091889  s :     3.091889
      pz      :     0.679628  p :     2.266207
      px      :     0.832109
      py      :     0.754470
      dz2     :     0.082437  d :     0.261864
      dxz     :     0.065353
      dyz     :     0.062360
      dx2y2   :     0.026246
      dxy     :     0.025469
      f0      :     0.006384  f :     0.024596
      f+1     :     0.004031
      f-1     :     0.003880
      f+2     :     0.004181
      f-2     :     0.003672
      f+3     :     0.001388
      f-3     :     0.001060
  4 H s       :     0.803665  s :     0.803665
      pz      :     0.007056  p :     0.033573
      px      :     0.009967
      py      :     0.016550
      dz2     :     0.000316  d :     0.001994
      dxz     :     0.000148
      dyz     :     0.000513
      dx2y2   :     0.000276
      dxy     :     0.000741
  5 H s       :     0.817389  s :     0.817389
      pz      :     0.009773  p :     0.033735
      px      :     0.012655
      py      :     0.011306
      dz2     :     0.000686  d :     0.002077
      dxz     :     0.000264
      dyz     :     0.000331
      dx2y2   :     0.000512
      dxy     :     0.000284
  6 O s       :     3.818341  s :     3.818341
      pz      :     1.466602  p :     4.511622
      px      :     1.598906
      py      :     1.446114
      dz2     :     0.007712  d :     0.028940
      dxz     :     0.007913
      dyz     :     0.007116
      dx2y2   :     0.003570
      dxy     :     0.002628
      f0      :     0.000418  f :     0.001981
      f+1     :     0.000411
      f-1     :     0.000324
      f+2     :     0.000432
[...]
     53      -0.000246  -0.003756   0.339604   0.134990  -0.003817   0.002318
     54      -0.000979   0.004278  -0.329319  -0.089161   0.018089   0.002789
     55      -0.001253   0.005549  -0.436746  -0.118887   0.018559   0.004422
     56      -0.000377   0.001775  -0.126409  -0.031681   0.015825   0.002422
     57       0.000159   0.000015  -0.000054   0.000161   0.000130   0.000098
     58       0.000163  -0.000010   0.000037  -0.000099   0.000004  -0.000049
     59       0.000019  -0.000003   0.000058  -0.000091   0.000534   0.000094
     60      -0.001106  -0.000050   0.000243  -0.000798  -0.001444  -0.001009
     61      -0.002671   0.000035  -0.000003   0.000166   0.001472   0.000810
     62       0.000975  -0.000051   0.000381  -0.000778   0.002882   0.001089
     63      -0.000527   0.001844  -0.021062   0.055494  -0.047976   0.027330
     64       0.000018  -0.000058   0.000292  -0.005181  -0.043471  -0.068324
     65       0.000269  -0.001031   0.011421  -0.034347  -0.019882   0.017460
     66       0.006788  -0.024998   0.282056  -0.816152   0.009039  -0.068209
     67      -0.000810   0.003269  -0.039875   0.115706  -0.011741  -0.001914
     68      -0.003691   0.014106  -0.147074   0.451895  -0.016872   0.039955
     69      -0.000185   0.000725  -0.010750   0.035925   0.063311  -0.401189
     70       0.000480  -0.002038   0.024527  -0.083317  -0.137485   0.841050
     71      -0.000220   0.000992  -0.012021   0.037893   0.053669  -0.314638
     72       0.000213  -0.000349   0.005924   0.029105   0.593576   0.095827
     73       0.000371  -0.000846   0.014360   0.021590   0.747748   0.100524
     74       0.000212  -0.000447   0.000112  -0.001834   0.237863   0.036829
                 72         73         74    
      0      -0.000059   0.005507  -0.000134
      1      -0.000501   0.062998   0.000138
      2       0.000253  -0.038372  -0.000073
      3       0.000584  -0.082378  -0.000224
      4       0.006754  -0.845279  -0.001336
      5      -0.003950   0.522476   0.000419
      6      -0.000013   0.000946   0.000118
      7      -0.000005   0.000199  -0.000115
      8       0.000003   0.001297  -0.000316
      9      -0.000006   0.000116  -0.002221
     10       0.000018  -0.000050   0.001431
     11       0.000084   0.000043   0.001108
     12      -0.000022  -0.001917   0.000792
     13      -0.000017  -0.006567   0.000468
     14      -0.000015  -0.003289  -0.001215
     15       0.000005  -0.002443  -0.000102
     16       0.000052  -0.003124  -0.001235
     17      -0.000070   0.007018  -0.000767
     18       0.000011   0.000009   0.000590
     19      -0.000016   0.000011  -0.000537
     20      -0.000047   0.000052  -0.001146
     21       0.000066  -0.000139   0.000059
     22       0.000045  -0.000114   0.000085
     23      -0.000103  -0.001441   0.000048
     24       0.000928   0.000024   0.000012
     25      -0.000113   0.000261  -0.000006
     26      -0.001265   0.000017   0.000008
     27       0.000029   0.000002  -0.000047
     28      -0.000075  -0.001330  -0.000045
     29      -0.000150   0.000321  -0.000010
     30       0.037013   0.000301  -0.000042
     31       0.062841   0.000539  -0.000047
     32      -0.005781  -0.000046  -0.000019
     33      -0.002048  -0.000893   0.000030
     34      -0.009833  -0.004286  -0.000018
     35       0.001555   0.000703   0.000008
     36      -0.006670  -0.000069   0.000003
     37       0.000079  -0.000523  -0.000039
     38       0.001899  -0.000233  -0.000036
     39      -0.489731  -0.003810   0.000432
     40      -0.862620  -0.006682   0.000649
     41       0.102187   0.000964   0.000035
     42      -0.001196  -0.000099   0.000030
     43       0.001299  -0.000022   0.000019
     44      -0.000760   0.000037   0.000013
     45       0.000259   0.000003   0.000001
     46       0.000138   0.000010  -0.000004
     47       0.000282   0.000031   0.000026
     48      -0.000748   0.000029  -0.000011
     49      -0.000735   0.000029  -0.000013
     50      -0.000018  -0.000034  -0.000021
     51      -0.001110   0.000004  -0.000017
     52       0.000173  -0.000030   0.000024
     53      -0.000309   0.000015  -0.000013
     54      -0.003934  -0.000055  -0.000027
     55      -0.003353   0.000057   0.000003
     56      -0.000894  -0.000008  -0.000059
     57      -0.000042   0.000117  -0.034117
     58       0.000027  -0.000043   0.027707
     59       0.000002  -0.000001   0.044469
     60       0.000491  -0.001045   0.558543
     61      -0.000398   0.000546  -0.447835
     62      -0.000510   0.000850  -0.695366
     63      -0.000008   0.000461  -0.000071
     64       0.000161  -0.000229  -0.000227
     65      -0.000020  -0.000136  -0.000067
     66       0.000029  -0.005782   0.000043
     67      -0.000634   0.001988   0.000392
     68       0.000673   0.002953   0.000279
     69       0.000633  -0.000899  -0.000451
     70      -0.001993   0.002160   0.000935
     71       0.000794  -0.000916  -0.000337
     72      -0.000170  -0.000459   0.001326
     73      -0.000511  -0.000214   0.002781
     74       0.000103   0.000021   0.001552


-----------
IR SPECTRUM
-----------

 Mode   freq       eps      Int      T**2         TX        TY        TZ
       cm**-1   L/(mol*cm) km/mol    a.u.
----------------------------------------------------------------------------
  6:     43.70   0.000207    1.05  0.001478  (-0.006750  0.017561 -0.033527)
  7:     58.08   0.000212    1.07  0.001142  ( 0.033013 -0.003778  0.006125)
  8:     76.55   0.003817   19.29  0.015560  (-0.010155 -0.022124  0.122340)
  9:     84.17   0.000830    4.19  0.003076  (-0.001155  0.036604  0.041650)
 10:    133.36   0.002670   13.49  0.006247  (-0.019766  0.027215  0.071523)
 11:    151.81   0.008315   42.02  0.017091  (-0.123835 -0.032189 -0.026831)
 12:    201.32   0.009308   47.04  0.014429  ( 0.029514 -0.066984 -0.095242)
 13:    227.26   0.005015   25.34  0.006886  ( 0.033004 -0.073430 -0.020120)
 14:    267.65   0.002067   10.45  0.002410  (-0.009978  0.043364 -0.020732)
 15:    282.88   0.003859   19.50  0.004257  (-0.048645 -0.021626 -0.037723)
 16:    298.59   0.006817   34.45  0.007125  (-0.062019  0.036904 -0.043776)
 17:    310.41   0.000875    4.42  0.000880  (-0.000979  0.024511 -0.016675)
 18:    348.06   0.000648    3.27  0.000581  (-0.008043 -0.005025  0.022152)
 19:    392.70   0.006874   34.74  0.005462  ( 0.040429 -0.050605 -0.035592)
 20:    434.81   0.004590   23.19  0.003294  (-0.029539  0.046358  0.016504)
 21:    478.70   0.016727   84.53  0.010904  ( 0.047923  0.091984 -0.012095)
 22:    493.05   0.010534   53.23  0.006667  ( 0.074247 -0.033806 -0.003407)
 23:    524.28   0.003302   16.69  0.001965  (-0.025112  0.031577  0.018372)
 24:    577.90   0.006049   30.57  0.003266  (-0.041817 -0.037860 -0.009187)
 25:    587.55   0.010931   55.24  0.005806  ( 0.040377  0.010824  0.063705)
 26:    617.93   0.005017   25.36  0.002534  ( 0.008340 -0.033492 -0.036642)
 27:    679.71   0.012359   62.46  0.005674  (-0.044425 -0.014420 -0.059098)
 28:    712.29   0.002295   11.60  0.001006  ( 0.025236 -0.011825 -0.015130)
 29:    757.28   0.001213    6.13  0.000500  (-0.011135  0.005478 -0.018592)
 30:    797.13   0.001985   10.03  0.000777  ( 0.005239  0.001066  0.027359)
 31:    871.49   0.000353    1.78  0.000126  (-0.003843  0.010503 -0.001147)
 32:    884.22   0.002212   11.18  0.000781  ( 0.012112 -0.010328  0.022964)
 33:    896.85   0.002226   11.25  0.000775  ( 0.014015 -0.001730 -0.023984)
 34:    917.50   0.000316    1.59  0.000107  ( 0.009220 -0.001732 -0.004395)
 35:    982.32   0.001568    7.92  0.000498  ( 0.017909 -0.012050  0.005672)
 36:   1046.56   0.001519    7.68  0.000453  ( 0.015448 -0.010276  0.010429)
 37:   1057.08   0.002518   12.72  0.000743  (-0.003875 -0.026751  0.003557)
 38:   1060.37   0.002734   13.81  0.000804  (-0.027327  0.005386  0.005360)
 39:   1118.41   0.001555    7.86  0.000434  ( 0.020559 -0.001044 -0.003183)
 40:   1136.01   0.009979   50.43  0.002741  ( 0.025979 -0.043607 -0.012836)
 41:   1151.45   0.004466   22.57  0.001210  (-0.021319  0.014496  0.023364)
 42:   1202.90   0.000785    3.97  0.000204  ( 0.002008 -0.000157 -0.014126)
 43:   1258.40   0.006650   33.61  0.001649  (-0.014483 -0.020622 -0.031844)
 44:   1284.94   0.006492   32.81  0.001577  (-0.031897  0.016041 -0.017377)
 45:   1299.26   0.025050  126.59  0.006017  (-0.025833  0.000164 -0.073139)
 46:   1314.99   0.060521  305.85  0.014362  ( 0.041673  0.015449  0.111297)
 47:   1328.77   0.009050   45.74  0.002125  (-0.042263  0.010689 -0.015002)
 48:   1335.95   0.003110   15.72  0.000726  (-0.009448 -0.000846  0.025229)
 49:   1404.76   0.001114    5.63  0.000248  (-0.000553 -0.008024  0.013523)
 50:   1421.14   0.000094    0.48  0.000021  ( 0.000614  0.003870 -0.002314)
 51:   1428.38   0.018364   92.80  0.004012  ( 0.045083 -0.013662  0.042342)
 52:   1472.29   0.003064   15.48  0.000649  ( 0.000664 -0.018603  0.017404)
 53:   1472.68   0.003722   18.81  0.000789  ( 0.008105  0.012865 -0.023610)
 54:   1506.47   0.003288   16.62  0.000681  ( 0.015915 -0.019456 -0.007018)
 55:   1553.07   0.028106  142.03  0.005647  ( 0.072904 -0.018149 -0.001731)
 56:   1565.97   0.017680   89.35  0.003523  (-0.009047  0.000224 -0.058662)
 57:   1597.61   0.054057  273.18  0.010559  ( 0.029056  0.063913  0.075033)
 58:   1640.63   0.030242  152.83  0.005752  (-0.003245 -0.075767  0.001064)
 59:   1666.13   0.040872  206.55  0.007655  ( 0.052055 -0.065882 -0.024597)
 60:   1737.60   0.026297  132.90  0.004723  ( 0.012850  0.065297 -0.017146)
 61:   1823.91   0.038812  196.14  0.006641  ( 0.056063  0.059134  0.000764)
 62:   1867.36   0.061377  310.18  0.010257  (-0.042347  0.042013  0.081845)
 63:   3089.86   0.001651    8.34  0.000167  (-0.005575 -0.002456 -0.011383)
 64:   3124.02   0.000704    3.56  0.000070  (-0.003938  0.005566  0.004882)
 65:   3130.26   0.000582    2.94  0.000058  ( 0.001969  0.005969  0.004305)
 66:   3147.63   0.000018    0.09  0.000002  (-0.000181  0.000551 -0.001221)
 67:   3182.61   0.000510    2.58  0.000050  (-0.005334  0.004595  0.000701)
 68:   3203.22   0.005624   28.42  0.000548  ( 0.018354 -0.011245 -0.009197)
 69:   3215.85   0.061396  310.27  0.005958  (-0.056191  0.039290  0.035451)
 70:   3354.52   0.041806  211.27  0.003889  ( 0.025705  0.042073  0.038188)
 71:   3546.59   0.025567  129.20  0.002250  (-0.018519  0.043531 -0.003424)
 72:   3658.81   0.009140   46.19  0.000780  (-0.020197 -0.019214 -0.001569)
 73:   3678.67   0.015006   75.83  0.001273  (-0.002917 -0.033978  0.010484)
 74:   3840.77   0.022901  115.73  0.001861  ( 0.008941 -0.014187 -0.039743)

* The epsilon (eps) is given for a Dirac delta lineshape.
** The dipole moment derivative (T) already includes vibrational overlap.

The first frequency considered to be a vibration is 6
The total number of vibrations considered is 69


--------------------------
THERMOCHEMISTRY AT 298.15K
--------------------------

Temperature         ... 298.15 K
Pressure            ... 1.00 atm
Total Mass          ... 190.18 AMU

Throughout the following assumptions are being made:
  (1) The electronic state is orbitally nondegenerate
  (2) There are no thermally accessible electronically excited states
  (3) Hindered rotations indicated by low frequency modes are not
      treated as such but are treated as vibrations and this may
      cause some error
  (4) All equations used are the standard statistical mechanics
      equations for an ideal gas
  (5) All vibrations are strictly harmonic

freq.      43.70  E(vib)   ...       0.53 
freq.      58.08  E(vib)   ...       0.51 
freq.      76.55  E(vib)   ...       0.49 
freq.      84.17  E(vib)   ...       0.48 
freq.     133.36  E(vib)   ...       0.42 
freq.     151.81  E(vib)   ...       0.40 
freq.     201.32  E(vib)   ...       0.35 
freq.     227.26  E(vib)   ...       0.33 
freq.     267.65  E(vib)   ...       0.29 
freq.     282.88  E(vib)   ...       0.28 
freq.     298.59  E(vib)   ...       0.26 
freq.     310.41  E(vib)   ...       0.26 
freq.     348.06  E(vib)   ...       0.23 
freq.     392.70  E(vib)   ...       0.20 
freq.     434.81  E(vib)   ...       0.17 
freq.     478.70  E(vib)   ...       0.15 
freq.     493.05  E(vib)   ...       0.14 
freq.     524.28  E(vib)   ...       0.13 
freq.     577.90  E(vib)   ...       0.11 
freq.     587.55  E(vib)   ...       0.10 
freq.     617.93  E(vib)   ...       0.09 
freq.     679.71  E(vib)   ...       0.08 
freq.     712.29  E(vib)   ...       0.07 
freq.     757.28  E(vib)   ...       0.06 
freq.     797.13  E(vib)   ...       0.05 
freq.     871.49  E(vib)   ...       0.04 
freq.     884.22  E(vib)   ...       0.04 
freq.     896.85  E(vib)   ...       0.03 
freq.     917.50  E(vib)   ...       0.03 
freq.     982.32  E(vib)   ...       0.02 
freq.    1046.56  E(vib)   ...       0.02 
freq.    1057.08  E(vib)   ...       0.02 
freq.    1060.37  E(vib)   ...       0.02 
freq.    1118.41  E(vib)   ...       0.01 
freq.    1136.01  E(vib)   ...       0.01 
freq.    1151.45  E(vib)   ...       0.01 
freq.    1202.90  E(vib)   ...       0.01 
freq.    1258.40  E(vib)   ...       0.01 
freq.    1284.94  E(vib)   ...       0.01 
freq.    1299.26  E(vib)   ...       0.01 
freq.    1314.99  E(vib)   ...       0.01 
freq.    1328.77  E(vib)   ...       0.01 
freq.    1335.95  E(vib)   ...       0.01 
freq.    1404.76  E(vib)   ...       0.00 
freq.    1421.14  E(vib)   ...       0.00 
freq.    1428.38  E(vib)   ...       0.00 
freq.    1472.29  E(vib)   ...       0.00 
freq.    1472.68  E(vib)   ...       0.00 
freq.    1506.47  E(vib)   ...       0.00 
freq.    1553.07  E(vib)   ...       0.00 
freq.    1565.97  E(vib)   ...       0.00 
freq.    1597.61  E(vib)   ...       0.00 
freq.    1640.63  E(vib)   ...       0.00 
freq.    1666.13  E(vib)   ...       0.00 
freq.    1737.60  E(vib)   ...       0.00 
freq.    1823.91  E(vib)   ...       0.00 
freq.    1867.36  E(vib)   ...       0.00 
freq.    3089.86  E(vib)   ...       0.00 
freq.    3124.02  E(vib)   ...       0.00 
freq.    3130.26  E(vib)   ...       0.00 
freq.    3147.63  E(vib)   ...       0.00 
freq.    3182.61  E(vib)   ...       0.00 
freq.    3203.22  E(vib)   ...       0.00 
freq.    3215.85  E(vib)   ...       0.00 
freq.    3354.52  E(vib)   ...       0.00 
freq.    3546.59  E(vib)   ...       0.00 
freq.    3658.81  E(vib)   ...       0.00 
freq.    3678.67  E(vib)   ...       0.00 
freq.    3840.77  E(vib)   ...       0.00 

------------
INNER ENERGY
------------

The inner energy is: U= E(el) + E(ZPE) + E(vib) + E(rot) + E(trans)
    E(el)   - is the total energy from the electronic structure calculation
              = E(kin-el) + E(nuc-el) + E(el-el) + E(nuc-nuc)
    E(ZPE)  - the the zero temperature vibrational energy from the frequency calculation
    E(vib)  - the the finite temperature correction to E(ZPE) due to population
              of excited vibrational states
    E(rot)  - is the rotational thermal energy
    E(trans)- is the translational thermal energy

Summary of contributions to the inner energy U:
Electronic energy                ...   -701.34491506 Eh
Zero point energy                ...      0.20962672 Eh     131.54 kcal/mol
Thermal vibrational correction   ...      0.01041615 Eh       6.54 kcal/mol
Thermal rotational correction    ...      0.00141627 Eh       0.89 kcal/mol
Thermal translational correction ...      0.00141627 Eh       0.89 kcal/mol
-----------------------------------------------------------------------
Total thermal energy                   -701.12203964 Eh


Summary of corrections to the electronic energy:
(perhaps to be used in another calculation)
Total thermal correction                  0.01324870 Eh       8.31 kcal/mol
Non-thermal (ZPE) correction              0.20962672 Eh     131.54 kcal/mol
-----------------------------------------------------------------------
Total correction                          0.22287542 Eh     139.86 kcal/mol


--------
ENTHALPY
--------

The enthalpy is H = U + kB*T
                kB is Boltzmann's constant
Total free energy                 ...   -701.12203964 Eh 
Thermal Enthalpy correction       ...      0.00094421 Eh       0.59 kcal/mol
-----------------------------------------------------------------------
Total Enthalpy                    ...   -701.12109544 Eh


Note: Only C1 symmetry has been detected, increase convergence thresholds 
      if your molecule has a higher symmetry. Symmetry factor of 1.0 is   
      used for the rotational entropy correction. 
 

Note: Rotational entropy computed according to Herzberg 
Infrared and Raman Spectra, Chapter V,1, Van Nostrand Reinhold, 1945 
Point Group:  C1, Symmetry Number:   1  
Rotational constants in cm-1:     0.041538     0.020603     0.016580 

Vibrational entropy computed according to the QRRHO of S. Grimme
Chem.Eur.J. 2012 18 9955


-------
ENTROPY
-------

The entropy contributions are T*S = T*(S(el)+S(vib)+S(rot)+S(trans))
     S(el)   - electronic entropy
     S(vib)  - vibrational entropy
     S(rot)  - rotational entropy
     S(trans)- translational entropy
The entropies will be listed as multiplied by the temperature to get
units of energy

Electronic entropy                ...      0.00000000 Eh      0.00 kcal/mol
Vibrational entropy               ...      0.01811431 Eh     11.37 kcal/mol
Rotational entropy                ...      0.01478078 Eh      9.28 kcal/mol
Translational entropy             ...      0.01978162 Eh     12.41 kcal/mol
-----------------------------------------------------------------------
Final entropy term                ...      0.05267670 Eh     33.06 kcal/mol

In case the symmetry of your molecule has not been determined correctly
or in case you have a reason to use a different symmetry number we print 
out the resulting rotational entropy values for sn=1,12 :
 --------------------------------------------------------
|  sn= 1 | S(rot)=       0.01478078 Eh      9.28 kcal/mol|
|  sn= 2 | S(rot)=       0.01412633 Eh      8.86 kcal/mol|
|  sn= 3 | S(rot)=       0.01374349 Eh      8.62 kcal/mol|
|  sn= 4 | S(rot)=       0.01347187 Eh      8.45 kcal/mol|
|  sn= 5 | S(rot)=       0.01326118 Eh      8.32 kcal/mol|
|  sn= 6 | S(rot)=       0.01308904 Eh      8.21 kcal/mol|
|  sn= 7 | S(rot)=       0.01294349 Eh      8.12 kcal/mol|
|  sn= 8 | S(rot)=       0.01281741 Eh      8.04 kcal/mol|
|  sn= 9 | S(rot)=       0.01270620 Eh      7.97 kcal/mol|
|  sn=10 | S(rot)=       0.01260672 Eh      7.91 kcal/mol|
|  sn=11 | S(rot)=       0.01251673 Eh      7.85 kcal/mol|
|  sn=12 | S(rot)=       0.01243458 Eh      7.80 kcal/mol|
 --------------------------------------------------------


-------------------
GIBBS FREE ENERGY
-------------------

The Gibbs free energy is G = H - T*S

Total enthalpy                    ...   -701.12109544 Eh 
Total entropy correction          ...     -0.05267670 Eh    -33.06 kcal/mol
-----------------------------------------------------------------------
Final Gibbs free energy         ...   -701.17377214 Eh

For completeness - the Gibbs free energy minus the electronic energy
G-E(el)                           ...      0.17114292 Eh    107.39 kcal/mol


Timings for individual modules:

Sum of individual times         ...     7091.592 sec (= 118.193 min)
GTO integral calculation        ...       22.332 sec (=   0.372 min)   0.3 %
SCF iterations                  ...     2414.851 sec (=  40.248 min)  34.1 %
SCF Gradient evaluation         ...      497.927 sec (=   8.299 min)   7.0 %
Geometry relaxation             ...        0.893 sec (=   0.015 min)   0.0 %
Analytical frequency calculation...     3649.201 sec (=  60.820 min)  51.5 %
CHELPG charge generation        ...      506.388 sec (=   8.440 min)   7.1 %
                             ****ORCA TERMINATED NORMALLY****
TOTAL RUN TIME: 0 days 1 hours 58 minutes 49 seconds 344 msec
