
Lmod is automatically replacing "intel/2020.1.217" with "gcc/10.3.0".


Due to MODULEPATH changes, the following have been reloaded:
  1) blis/0.8.1     2) flexiblas/3.0.4

The following have been reloaded with a version change:
  1) gcccore/.9.3.0 => gcccore/.10.3.0        3) openmpi/4.0.3 => openmpi/4.1.1
  2) libfabric/1.10.1 => libfabric/1.12.1     4) ucx/1.8.0 => ucx/1.9.0

To execute ORCA, run: 
   ${EBROOTORCA}/orca orca.inp > orca.out

                                 *****************
                                 * O   R   C   A *
                                 *****************

                                            #,                                       
                                            ###                                      
                                            ####                                     
                                            #####                                    
                                            ######                                   
                                           ########,                                 
                                     ,,################,,,,,                         
                               ,,#################################,,                 
                          ,,##########################################,,             
                       ,#########################################, ''#####,          
                    ,#############################################,,   '####,        
                  ,##################################################,,,,####,       
                ,###########''''           ''''###############################       
              ,#####''   ,,,,##########,,,,          '''####'''          '####       
            ,##' ,,,,###########################,,,                        '##       
           ' ,,###''''                  '''############,,,                           
         ,,##''                                '''############,,,,        ,,,,,,###''
      ,#''                                            '''#######################'''  
     '                                                          ''''####''''         
             ,#######,   #######,   ,#######,      ##                                
            ,#'     '#,  ##    ##  ,#'     '#,    #''#        ######   ,####,        
            ##       ##  ##   ,#'  ##            #'  '#       #        #'  '#        
            ##       ##  #######   ##           ,######,      #####,   #    #        
            '#,     ,#'  ##    ##  '#,     ,#' ,#      #,         ##   #,  ,#        
             '#######'   ##     ##  '#######'  #'      '#     #####' # '####'        



                  #######################################################
                  #                        -***-                        #
                  #          Department of theory and spectroscopy      #
                  #    Directorship and core code : Frank Neese         #
                  #        Max Planck Institute fuer Kohlenforschung    #
                  #                Kaiser Wilhelm Platz 1               #
                  #                 D-45470 Muelheim/Ruhr               #
                  #                      Germany                        #
                  #                                                     #
                  #                  All rights reserved                #
                  #                        -***-                        #
                  #######################################################


                         Program Version 5.0.2 -  RELEASE  -


 With contributions from (in alphabetic order):
   Daniel Aravena         : Magnetic Suceptibility
   Michael Atanasov       : Ab Initio Ligand Field Theory (pilot matlab implementation)
   Alexander A. Auer      : GIAO ZORA, VPT2 properties, NMR spectrum
   Ute Becker             : Parallelization
   Giovanni Bistoni       : ED, misc. LED, open-shell LED, HFLD
   Martin Brehm           : Molecular dynamics
   Dmytro Bykov           : SCF Hessian
   Vijay G. Chilkuri      : MRCI spin determinant printing, contributions to CSF-ICE
   Dipayan Datta          : RHF DLPNO-CCSD density
   Achintya Kumar Dutta   : EOM-CC, STEOM-CC
   Dmitry Ganyushin       : Spin-Orbit,Spin-Spin,Magnetic field MRCI
   Miquel Garcia          : C-PCM and meta-GGA Hessian, CC/C-PCM, Gaussian charge scheme
   Yang Guo               : DLPNO-NEVPT2, F12-NEVPT2, CIM, IAO-localization
   Andreas Hansen         : Spin unrestricted coupled pair/coupled cluster methods
   Benjamin Helmich-Paris : MC-RPA, TRAH-SCF, COSX integrals
   Lee Huntington         : MR-EOM, pCC
   Robert Izsak           : Overlap fitted RIJCOSX, COSX-SCS-MP3, EOM
   Marcus Kettner         : VPT2
   Christian Kollmar      : KDIIS, OOCD, Brueckner-CCSD(T), CCSD density, CASPT2, CASPT2-K
   Simone Kossmann        : Meta GGA functionals, TD-DFT gradient, OOMP2, MP2 Hessian
   Martin Krupicka        : Initial AUTO-CI
   Lucas Lang             : DCDCAS
   Marvin Lechner         : AUTO-CI (C++ implementation), FIC-MRCC
   Dagmar Lenk            : GEPOL surface, SMD
   Dimitrios Liakos       : Extrapolation schemes; Compound Job, initial MDCI parallelization
   Dimitrios Manganas     : Further ROCIS development; embedding schemes
   Dimitrios Pantazis     : SARC Basis sets
   Anastasios Papadopoulos: AUTO-CI, single reference methods and gradients
   Taras Petrenko         : DFT Hessian,TD-DFT gradient, ASA, ECA, R-Raman, ABS, FL, XAS/XES, NRVS
   Peter Pinski           : DLPNO-MP2, DLPNO-MP2 Gradient
   Christoph Reimann      : Effective Core Potentials
   Marius Retegan         : Local ZFS, SOC
   Christoph Riplinger    : Optimizer, TS searches, QM/MM, DLPNO-CCSD(T), (RO)-DLPNO pert. Triples
   Tobias Risthaus        : Range-separated hybrids, TD-DFT gradient, RPA, STAB
   Michael Roemelt        : Original ROCIS implementation
   Masaaki Saitow         : Open-shell DLPNO-CCSD energy and density
   Barbara Sandhoefer     : DKH picture change effects
   Avijit Sen             : IP-ROCIS
   Kantharuban Sivalingam : CASSCF convergence, NEVPT2, FIC-MRCI
   Bernardo de Souza      : ESD, SOC TD-DFT
   Georgi Stoychev        : AutoAux, RI-MP2 NMR, DLPNO-MP2 response
   Willem Van den Heuvel  : Paramagnetic NMR
   Boris Wezisla          : Elementary symmetry handling
   Frank Wennmohs         : Technical directorship


 We gratefully acknowledge several colleagues who have allowed us to
 interface, adapt or use parts of their codes:
   Stefan Grimme, W. Hujo, H. Kruse, P. Pracht,  : VdW corrections, initial TS optimization,
                  C. Bannwarth, S. Ehlert          DFT functionals, gCP, sTDA/sTD-DF
   Ed Valeev, F. Pavosevic, A. Kumar             : LibInt (2-el integral package), F12 methods
   Garnet Chan, S. Sharma, J. Yang, R. Olivares  : DMRG
   Ulf Ekstrom                                   : XCFun DFT Library
   Mihaly Kallay                                 : mrcc  (arbitrary order and MRCC methods)
   Jiri Pittner, Ondrej Demel                    : Mk-CCSD
   Frank Weinhold                                : gennbo (NPA and NBO analysis)
   Christopher J. Cramer and Donald G. Truhlar   : smd solvation model
   Lars Goerigk                                  : TD-DFT with DH, B97 family of functionals
   V. Asgeirsson, H. Jonsson                     : NEB implementation
   FAccTs GmbH                                   : IRC, NEB, NEB-TS, DLPNO-Multilevel, CI-OPT
                                                   MM, QMMM, 2- and 3-layer-ONIOM, Crystal-QMMM,
                                                   LR-CPCM, SF, NACMEs, symmetry and pop. for TD-DFT,
                                                   nearIR, NL-DFT gradient (VV10), updates on ESD,
                                                   ML-optimized integration grids
   S Lehtola, MJT Oliveira, MAL Marques          : LibXC Library
   Liviu Ungur et al                             : ANISO software


 Your calculation uses the libint2 library for the computation of 2-el integrals
 For citations please refer to: http://libint.valeyev.net

 Your ORCA version has been built with support for libXC version: 5.1.0
 For citations please refer to: https://tddft.org/programs/libxc/

 This ORCA versions uses:
   CBLAS   interface :  Fast vector & matrix operations
   LAPACKE interface :  Fast linear algebra routines
   SCALAPACK package :  Parallel linear algebra routines
   Shared memory     :  Shared parallel matrices
   BLAS/LAPACK       :  OpenBLAS 0.3.15  USE64BITINT DYNAMIC_ARCH NO_AFFINITY Zen SINGLE_THREADED
        Core in use  :  Zen
   Copyright (c) 2011-2014, The OpenBLAS Project


Your calculation utilizes the atom-pairwise dispersion correction
with the Becke-Johnson damping scheme (D3BJ)
Cite in your paper:
S.Grimme, S.Ehrlich, L.Goerigk, J Comput Chem, (2011), 32, 1456–1465 
S.Grimme, J.Antony, S.Ehrlich and H.Krieg, J.Chem.Phys., 132, (2010), 154104 
   

================================================================================

----- Orbital basis set information -----
Your calculation utilizes the basis: def2-TZVPP
   F. Weigend and R. Ahlrichs, Phys. Chem. Chem. Phys. 7, 3297 (2005).

----- AuxJ basis set information -----
Your calculation utilizes the auxiliary basis: def2/J
   F. Weigend, Phys. Chem. Chem. Phys. 8, 1057 (2006).

================================================================================
                                        WARNINGS
                       Please study these warnings very carefully!
================================================================================


WARNING: Geometry Optimization
  ===> : Switching off AutoStart
         For restart on a previous wavefunction, please use MOREAD

INFO   : the flag for use of the SHARK integral package has been found!

================================================================================
                                       INPUT FILE
================================================================================
NAME = GGG-H_tt_012_OptFreq.inp
|  1> # GGG-H_tt_012 (old 057)
|  2> ! wB97X-D3BJ Opt Freq def2-TZVPP def2/J RIJCOSX VeryTightSCF
|  3> ! PAL8 defgrid3 VeryTightOpt
|  4> 
|  5> %maxcore 4096
|  6> 
|  7> %geom
|  8>   MaxIter 300
|  9>   # MaxStep 0.1
| 10>   Calc_Hess true
| 11>   Recalc_Hess 10
| 12> end
| 13> 
| 14> %chelpg
| 15>   grid 0.1
| 16>   rmax 3.0
| 17> end
| 18> 
| 19> * xyz 1 1 
| 20>  N   +0.485035   +2.617406   +2.311517
| 21>  H   +0.273206   +3.426253   +1.727436
| 22>  C   +1.270418   +2.783256   +3.534687
| 23>  C   +2.448391   +1.795290   +3.628753
| 24>  H   +1.661241   +3.813692   +3.558794
| 25>  H   +0.659116   +2.618354   +4.435950
| 26>  O   +2.842646   +1.337080   +4.665413
| 27>  C   +0.068552   +1.385458   +1.948399
| 28>  C   -0.615011   +1.200008   +0.574692
| 29>  O   +0.329734   +0.390494   +2.648687
| 30>  N   +0.000000   +0.000000   +0.000000
| 31>  H   -0.470406   +2.069189   -0.085350
| 32>  H   -1.693515   +1.021531   +0.704685
| 33>  H   -0.501451   -0.882118   +0.097700
| 34>  C   +1.360788   +0.000000   +0.000000
| 35>  C   +2.078902   -1.316300   +0.320513
| 36>  O   +2.012987   +1.046528   +0.000000
| 37>  H   +3.018333   -1.399673   -0.243860
| 38>  H   +1.468207   -2.222213   +0.188484
| 39>  O   +3.079551   +1.468395   +2.446739
| 40>  H   +2.653851   +1.863271   +1.647789
| 41>  N   +2.404990   -1.167549   +1.791748
| 42>  H   +2.863050   -1.997609   +2.195443
| 43>  H   +2.997501   -0.309737   +1.967448
| 44>  H   +1.521817   -0.929944   +2.318636
| 45> *
| 46> 
| 47>                          ****END OF INPUT****
================================================================================

                       *****************************
                       * Geometry Optimization Run *
                       *****************************

Geometry optimization settings:
Update method            Update   .... BFGS
Choice of coordinates    CoordSys .... Z-matrix Internals
Initial Hessian          InHess   .... Almoef's Model

Convergence Tolerances:
Energy Change            TolE     ....  2.0000e-07 Eh
Max. Gradient            TolMAXG  ....  3.0000e-05 Eh/bohr
RMS Gradient             TolRMSG  ....  8.0000e-06 Eh/bohr
Max. Displacement        TolMAXD  ....  2.0000e-04 bohr
RMS Displacement         TolRMSD  ....  1.0000e-04 bohr
Strict Convergence                ....  False
------------------------------------------------------------------------------
                        ORCA OPTIMIZATION COORDINATE SETUP
------------------------------------------------------------------------------

The optimization will be done in new redundant internal coordinates
Making redundant internal coordinates   ...  (new redundants) done
Evaluating the initial hessian          ...  (Is done on the fly) done
Evaluating the coordinates              ...  done
Calculating the B-matrix                .... done
Calculating the G-matrix                .... done
Diagonalizing the G-matrix              .... done
Small eigenvalue found = 5.414e-03
Small eigenvalue found = 1.535e-02
Small eigenvalue found = 2.270e-02
The first mode is                       ....   45
The number of degrees of freedom        ....   69

    -----------------------------------------------------------------
                    Redundant Internal Coordinates


    -----------------------------------------------------------------
         Definition                    Initial Value    d2E/dq (diagonal element)
    -----------------------------------------------------------------
      1. B(H   1,N   0)                  1.0199         0.000000   
      2. B(C   2,N   0)                  1.4630         0.000000   
      3. B(C   3,C   2)                  1.5403         0.000000   
      4. B(H   4,C   2)                  1.1023         0.000000   
      5. B(H   5,C   2)                  1.1014         0.000000   
      6. B(O   6,C   3)                  1.2000         0.000000   
      7. B(C   7,N   0)                  1.3502         0.000000   
      8. B(C   8,C   7)                  1.5455         0.000000   
      9. B(O   9,C   7)                  1.2444         0.000000   
     10. B(N  10,C   8)                  1.4658         0.000000   
     11. B(H  11,C   8)                  1.1009         0.000000   
     12. B(H  12,C   8)                  1.1009         0.000000   
     13. B(H  13,N  10)                  1.0194         0.000000   
     14. B(C  14,N  10)                  1.3608         0.000000   
     15. B(C  15,C  14)                  1.5333         0.000000   
     16. B(O  16,C  14)                  1.2331         0.000000   
     17. B(H  17,C  15)                  1.0991         0.000000   
     18. B(H  18,C  15)                  1.1005         0.000000   
     19. B(O  19,C   3)                  1.3793         0.000000   
     20. B(H  20,O  19)                  0.9877         0.000000   
     21. B(N  21,C  15)                  1.5143         0.000000   
     22. B(H  22,N  21)                  1.0304         0.000000   
     23. B(H  23,H  20)                  2.2231         0.000000   
     24. B(H  23,N  21)                  1.0573         0.000000   
     25. B(H  24,N  21)                  1.0555         0.000000   
     26. A(H   1,N   0,C   2)          120.0245         0.000000   
     27. A(C   2,N   0,C   7)          119.5950         0.000000   
     28. A(H   1,N   0,C   7)          120.3656         0.000000   
     29. A(C   3,C   2,H   5)          106.1676         0.000000   
     30. A(C   3,C   2,H   4)          109.0928         0.000000   
     31. A(N   0,C   2,H   4)          108.3352         0.000000   
     32. A(N   0,C   2,C   3)          112.8852         0.000000   
     33. A(N   0,C   2,H   5)          111.6663         0.000000   
     34. A(H   4,C   2,H   5)          108.5922         0.000000   
     35. A(O   6,C   3,O  19)          119.9658         0.000000   
     36. A(C   2,C   3,O  19)          116.7207         0.000000   
     37. A(C   2,C   3,O   6)          123.2932         0.000000   
     38. A(C   8,C   7,O   9)          119.8060         0.000000   
     39. A(N   0,C   7,O   9)          120.8932         0.000000   
     40. A(N   0,C   7,C   8)          119.0089         0.000000   
     41. A(C   7,C   8,H  11)          112.3367         0.000000   
     42. A(C   7,C   8,N  10)          105.1378         0.000000   
     43. A(H  11,C   8,H  12)          109.1152         0.000000   
     44. A(N  10,C   8,H  12)          108.9426         0.000000   
     45. A(C   7,C   8,H  12)          110.3523         0.000000   
     46. A(N  10,C   8,H  11)          110.8655         0.000000   
     47. A(H  13,N  10,C  14)          119.4668         0.000000   
     48. A(C   8,N  10,C  14)          114.8079         0.000000   
     49. A(C   8,N  10,H  13)          117.6758         0.000000   
     50. A(C  15,C  14,O  16)          118.7415         0.000000   
     51. A(N  10,C  14,O  16)          121.9313         0.000000   
     52. A(N  10,C  14,C  15)          117.9266         0.000000   
     53. A(H  17,C  15,H  18)          110.5039         0.000000   
     54. A(C  14,C  15,H  18)          114.9426         0.000000   
     55. A(C  14,C  15,H  17)          110.9830         0.000000   
     56. A(H  18,C  15,N  21)          108.4775         0.000000   
     57. A(H  17,C  15,N  21)          108.8014         0.000000   
     58. A(C  14,C  15,N  21)          102.6866         0.000000   
     59. A(C   3,O  19,H  20)          113.6564         0.000000   
     60. A(H  23,N  21,H  24)          101.7315         0.000000   
     61. A(H  22,N  21,H  24)          110.9608         0.000000   
     62. A(C  15,N  21,H  24)          109.0825         0.000000   
     63. A(H  22,N  21,H  23)          109.8375         0.000000   
     64. A(C  15,N  21,H  23)          111.2139         0.000000   
     65. A(C  15,N  21,H  22)          113.4055         0.000000   
     66. D(H   4,C   2,N   0,C   7)    169.9818         0.000000   
     67. D(H   5,C   2,N   0,C   7)    -70.4756         0.000000   
     68. D(H   5,C   2,N   0,H   1)    110.9207         0.000000   
     69. D(H   4,C   2,N   0,H   1)     -8.6219         0.000000   
     70. D(C   3,C   2,N   0,H   1)   -129.5475         0.000000   
     71. D(C   3,C   2,N   0,C   7)     49.0562         0.000000   
     72. D(O   6,C   3,C   2,H   4)     93.0484         0.000000   
     73. D(O  19,C   3,C   2,H   5)    157.8422         0.000000   
     74. D(O  19,C   3,C   2,H   4)    -85.3091         0.000000   
     75. D(O   6,C   3,C   2,H   5)    -23.8002         0.000000   
     76. D(O  19,C   3,C   2,N   0)     35.1843         0.000000   
     77. D(O   6,C   3,C   2,N   0)   -146.4581         0.000000   
     78. D(O   9,C   7,N   0,H   1)    179.4810         0.000000   
     79. D(C   8,C   7,N   0,C   2)   -172.9004         0.000000   
     80. D(C   8,C   7,N   0,H   1)      5.6985         0.000000   
     81. D(O   9,C   7,N   0,C   2)      0.8821         0.000000   
     82. D(H  12,C   8,C   7,O   9)     78.4183         0.000000   
     83. D(H  12,C   8,C   7,N   0)   -107.7302         0.000000   
     84. D(H  11,C   8,C   7,O   9)   -159.5747         0.000000   
     85. D(N  10,C   8,C   7,O   9)    -38.9065         0.000000   
     86. D(N  10,C   8,C   7,N   0)    134.9449         0.000000   
     87. D(H  11,C   8,C   7,N   0)     14.2767         0.000000   
     88. D(C  14,N  10,C   8,H  12)   -169.2437         0.000000   
     89. D(C  14,N  10,C   8,H  11)     70.6676         0.000000   
     90. D(C  14,N  10,C   8,C   7)    -50.9644         0.000000   
     91. D(H  13,N  10,C   8,H  12)    -20.5536         0.000000   
     92. D(H  13,N  10,C   8,H  11)   -140.6423         0.000000   
     93. D(H  13,N  10,C   8,C   7)     97.7257         0.000000   
     94. D(O  16,C  14,N  10,C   8)    -25.5901         0.000000   
     95. D(C  15,C  14,N  10,H  13)     -7.3648         0.000000   
     96. D(C  15,C  14,N  10,C   8)    140.7250         0.000000   
     97. D(O  16,C  14,N  10,H  13)   -173.6799         0.000000   
     98. D(N  21,C  15,C  14,O  16)     69.2634         0.000000   
     99. D(N  21,C  15,C  14,N  10)    -97.4985         0.000000   
    100. D(H  18,C  15,C  14,O  16)   -173.1572         0.000000   
    101. D(H  18,C  15,C  14,N  10)     20.0809         0.000000   
    102. D(H  17,C  15,C  14,O  16)    -46.8502         0.000000   
    103. D(H  17,C  15,C  14,N  10)    146.3878         0.000000   
    104. D(H  20,O  19,C   3,O   6)    177.3255         0.000000   
    105. D(H  20,O  19,C   3,C   2)     -4.2593         0.000000   
    106. D(H  24,N  21,C  15,H  18)    -68.8950         0.000000   
    107. D(H  24,N  21,C  15,H  17)    170.8471         0.000000   
    108. D(H  24,N  21,C  15,C  14)     53.1768         0.000000   
    109. D(H  23,N  21,C  15,H  18)    179.6935         0.000000   
    110. D(H  23,N  21,C  15,H  17)     59.4355         0.000000   
    111. D(H  23,N  21,C  15,C  14)    -58.2347         0.000000   
    112. D(H  22,N  21,C  15,H  18)     55.3138         0.000000   
    113. D(H  22,N  21,C  15,H  17)    -64.9441         0.000000   
    114. D(H  22,N  21,C  15,C  14)    177.3856         0.000000   
    -----------------------------------------------------------------

Number of atoms                         .... 25
Number of degrees of freedom            .... 114

         *************************************************************
         *                GEOMETRY OPTIMIZATION CYCLE   1            *
         *************************************************************
---------------------------------
CARTESIAN COORDINATES (ANGSTROEM)
---------------------------------
  N      0.485035    2.617406    2.311517
  H      0.273206    3.426253    1.727436
  C      1.270418    2.783256    3.534687
  C      2.448391    1.795290    3.628753
  H      1.661241    3.813692    3.558794
  H      0.659116    2.618354    4.435950
  O      2.842646    1.337080    4.665413
  C      0.068552    1.385458    1.948399
  C     -0.615011    1.200008    0.574692
  O      0.329734    0.390494    2.648687
  N      0.000000    0.000000    0.000000
  H     -0.470406    2.069189   -0.085350
  H     -1.693515    1.021531    0.704685
  H     -0.501451   -0.882118    0.097700
  C      1.360788    0.000000    0.000000
  C      2.078902   -1.316300    0.320513
  O      2.012987    1.046528    0.000000
  H      3.018333   -1.399673   -0.243860
  H      1.468207   -2.222213    0.188484
  O      3.079551    1.468395    2.446739
  H      2.653851    1.863271    1.647789
  N      2.404990   -1.167549    1.791748
  H      2.863050   -1.997609    2.195443
  H      2.997501   -0.309737    1.967448
  H      1.521817   -0.929944    2.318636

----------------------------
CARTESIAN COORDINATES (A.U.)
----------------------------
  NO LB      ZA    FRAG     MASS         X           Y           Z
   0 N     7.0000    0    14.007    0.916583    4.946181    4.368134
   1 H     1.0000    0     1.008    0.516285    6.474680    3.264381
   2 C     6.0000    0    12.011    2.400742    5.259592    6.679590
   3 C     6.0000    0    12.011    4.626788    3.392606    6.857349
   4 H     1.0000    0     1.008    3.139291    7.206833    6.725146
   5 H     1.0000    0     1.008    1.245549    4.947972    8.382731
   6 O     8.0000    0    15.999    5.371822    2.526715    8.816353
   7 C     6.0000    0    12.011    0.129545    2.618136    3.681941
   8 C     6.0000    0    12.011   -1.162202    2.267686    1.086010
   9 O     8.0000    0    15.999    0.623107    0.737927    5.005293
  10 N     7.0000    0    14.007    0.000000    0.000000    0.000000
  11 H     1.0000    0     1.008   -0.888939    3.910201   -0.161288
  12 H     1.0000    0     1.008   -3.200280    1.930414    1.331662
  13 H     1.0000    0     1.008   -0.947605   -1.666961    0.184626
  14 C     6.0000    0    12.011    2.571517    0.000000    0.000000
  15 C     6.0000    0    12.011    3.928555   -2.487447    0.605682
  16 O     8.0000    0    15.999    3.803994    1.977651    0.000000
  17 H     1.0000    0     1.008    5.703823   -2.644999   -0.460829
  18 H     1.0000    0     1.008    2.774509   -4.199374    0.356183
  19 O     8.0000    0    15.999    5.819508    2.774864    4.623667
  20 H     1.0000    0     1.008    5.015052    3.521072    3.113870
  21 N     7.0000    0    14.007    4.544772   -2.206348    3.385913
  22 H     1.0000    0     1.008    5.410380   -3.774934    4.148786
  23 H     1.0000    0     1.008    5.664456   -0.585318    3.717938
  24 H     1.0000    0     1.008    2.875817   -1.757339    4.381587

--------------------------------
INTERNAL COORDINATES (ANGSTROEM)
--------------------------------
 N      0   0   0     0.000000000000     0.00000000     0.00000000
 H      1   0   0     1.019929217746     0.00000000     0.00000000
 C      1   2   0     1.463037090469   120.02451430     0.00000000
 C      3   1   2     1.540306988311   112.88519269   230.45254428
 H      3   1   2     1.102325775292   108.33522341   351.37810304
 H      3   1   2     1.101434428360   111.66625837   110.92074152
 O      4   3   1     1.200023901731   123.29315674   213.54187403
 C      1   2   3     1.350188374234   120.36559187   181.40718005
 C      8   1   2     1.545548769634   119.00888084     5.69847105
 O      8   1   2     1.244416602816   120.89318402   179.48095775
 N      9   8   1     1.465786009296   105.13779921   134.94491191
 H      9   8   1     1.100927635474   112.33673615    14.27671526
 H      9   8   1     1.100873788222   110.35230753   252.26975964
 H     11   9   8     1.019377536208   117.67580764    97.72572453
 C     11   9   8     1.360788000000   114.80792353   309.03561311
 C     15  11   9     1.533317315550   117.92660332   140.72497536
 O     15  11   9     1.233119779415   121.93126903   334.40992236
 H     16  15  11     1.099089870765   110.98298316   146.38778332
 H     16  15  11     1.100480987312   114.94258879    20.08086262
 O      4   3   1     1.379268060538   116.72073308    35.18434124
 H     20   4   3     0.987658163474   113.65640650   355.74074759
 N     16  15  11     1.514263077860   102.68655252   262.50146428
 H     22  16  15     1.030431084656   113.40554560   177.38564161
 H     22  16  15     1.057251721429   111.21388242   301.76526939
 H     22  16  15     1.055491188262   109.08248932    53.17682350

---------------------------
INTERNAL COORDINATES (A.U.)
---------------------------
 N      0   0   0     0.000000000000     0.00000000     0.00000000
 H      1   0   0     1.927386897524     0.00000000     0.00000000
 C      1   2   0     2.764739424756   120.02451430     0.00000000
 C      3   1   2     2.910758370074   112.88519269   230.45254428
 H      3   1   2     2.083093825665   108.33522341   351.37810304
 H      3   1   2     2.081409424073   111.66625837   110.92074152
 O      4   3   1     2.267716528431   123.29315674   213.54187403
 C      1   2   3     2.551486256507   120.36559187   181.40718005
 C      8   1   2     2.920663901228   119.00888084     5.69847105
 O      8   1   2     2.351606575827   120.89318402   179.48095775
 N      9   8   1     2.769934128504   105.13779921   134.94491191
 H      9   8   1     2.080451724311   112.33673615    14.27671526
 H      9   8   1     2.080349967752   110.35230753   252.26975964
 H     11   9   8     1.926344370504   117.67580764    97.72572453
 C     11   9   8     2.571516646326   114.80792353   309.03561311
 C     15  11   9     2.897549802789   117.92660332   140.72497536
 O     15  11   9     2.330258673416   121.93126903   334.40992236
 H     16  15  11     2.076978852313   110.98298316   146.38778332
 H     16  15  11     2.079607681607   114.94258879    20.08086262
 O      4   3   1     2.606438899682   116.72073308    35.18434124
 H     20   4   3     1.866403442897   113.65640650   355.74074759
 N     16  15  11     2.861542511864   102.68655252   262.50146428
 H     22  16  15     1.947232549879   113.40554560   177.38564161
 H     22  16  15     1.997916208118   111.21388242   301.76526939
 H     22  16  15     1.994589282582   109.08248932    53.17682350

---------------------
BASIS SET INFORMATION
---------------------
There are 4 groups of distinct atoms

 Group   1 Type N   : 11s6p2d1f contracted to 5s3p2d1f pattern {62111/411/11/1}
 Group   2 Type H   : 5s2p1d contracted to 3s2p1d pattern {311/11/1}
 Group   3 Type C   : 11s6p2d1f contracted to 5s3p2d1f pattern {62111/411/11/1}
 Group   4 Type O   : 11s6p2d1f contracted to 5s3p2d1f pattern {62111/411/11/1}

Atom   0N    basis set group =>   1
Atom   1H    basis set group =>   2
Atom   2C    basis set group =>   3
Atom   3C    basis set group =>   3
Atom   4H    basis set group =>   2
Atom   5H    basis set group =>   2
Atom   6O    basis set group =>   4
Atom   7C    basis set group =>   3
Atom   8C    basis set group =>   3
Atom   9O    basis set group =>   4
Atom  10N    basis set group =>   1
Atom  11H    basis set group =>   2
Atom  12H    basis set group =>   2
Atom  13H    basis set group =>   2
Atom  14C    basis set group =>   3
Atom  15C    basis set group =>   3
Atom  16O    basis set group =>   4
Atom  17H    basis set group =>   2
Atom  18H    basis set group =>   2
Atom  19O    basis set group =>   4
Atom  20H    basis set group =>   2
Atom  21N    basis set group =>   1
Atom  22H    basis set group =>   2
Atom  23H    basis set group =>   2
Atom  24H    basis set group =>   2
---------------------------------
AUXILIARY/J BASIS SET INFORMATION
---------------------------------
There are 4 groups of distinct atoms

 Group   1 Type N   : 12s5p4d2f1g contracted to 6s4p3d1f1g pattern {711111/2111/211/2/1}
 Group   2 Type H   : 5s2p1d contracted to 3s1p1d pattern {311/2/1}
 Group   3 Type C   : 12s5p4d2f1g contracted to 6s4p3d1f1g pattern {711111/2111/211/2/1}
 Group   4 Type O   : 12s5p4d2f1g contracted to 6s4p3d1f1g pattern {711111/2111/211/2/1}

Atom   0N    basis set group =>   1
Atom   1H    basis set group =>   2
Atom   2C    basis set group =>   3
Atom   3C    basis set group =>   3
Atom   4H    basis set group =>   2
Atom   5H    basis set group =>   2
Atom   6O    basis set group =>   4
Atom   7C    basis set group =>   3
Atom   8C    basis set group =>   3
Atom   9O    basis set group =>   4
Atom  10N    basis set group =>   1
Atom  11H    basis set group =>   2
Atom  12H    basis set group =>   2
Atom  13H    basis set group =>   2
Atom  14C    basis set group =>   3
Atom  15C    basis set group =>   3
Atom  16O    basis set group =>   4
Atom  17H    basis set group =>   2
Atom  18H    basis set group =>   2
Atom  19O    basis set group =>   4
Atom  20H    basis set group =>   2
Atom  21N    basis set group =>   1
Atom  22H    basis set group =>   2
Atom  23H    basis set group =>   2
Atom  24H    basis set group =>   2


           ************************************************************
           *        Program running with 8 parallel MPI-processes     *
           *              working on a common directory               *
           ************************************************************
------------------------------------------------------------------------------
                           ORCA GTO INTEGRAL CALCULATION
                           -- RI-GTO INTEGRALS CHOSEN --
------------------------------------------------------------------------------
------------------------------------------------------------------------------
                   ___                                                        
                  /   \      - P O W E R E D   B Y -                         
                 /     \                                                     
                 |  |  |   _    _      __       _____    __    __             
                 |  |  |  | |  | |    /  \     |  _  \  |  |  /  |          
                  \  \/   | |  | |   /    \    | | | |  |  | /  /          
                 / \  \   | |__| |  /  /\  \   | |_| |  |  |/  /          
                |  |  |   |  __  | /  /__\  \  |    /   |      \           
                |  |  |   | |  | | |   __   |  |    \   |  |\   \          
                \     /   | |  | | |  |  |  |  | |\  \  |  | \   \       
                 \___/    |_|  |_| |__|  |__|  |_| \__\ |__|  \__/        
                                                                              
                      - O R C A' S   B I G   F R I E N D -                    
                                      &                                       
                       - I N T E G R A L  F E E D E R -                       
                                                                              
 v1 FN, 2020, v2 2021                                                         
------------------------------------------------------------------------------


Reading SHARK input file GGG-H_tt_012_OptFreq.SHARKINP.tmp ... ok
----------------------
SHARK INTEGRAL PACKAGE
----------------------

Number of atoms                             ...     25
Number of basis functions                   ...    571
Number of shells                            ...    215
Maximum angular momentum                    ...      3
Integral batch strategy                     ... SHARK/LIBINT Hybrid
RI-J (if used) integral strategy            ... SPLIT-RIJ (Revised 2003 algorithm where possible)
Printlevel                                  ...      1
Contraction scheme used                     ... SEGMENTED contraction
Coulomb Range Separation                    ... NOT USED
Exchange Range Separation                   ... Long Range
   Mu parameter                             ...  0.300000
   Scaling (regular/separated)              ...  0.167000  0.833000
Finite Nucleus Model                        ... NOT USED
Auxiliary Coulomb fitting basis             ... AVAILABLE
   # of basis functions in Aux-J            ...    769
   # of shells in Aux-J                     ...    255
   Maximum angular momentum in Aux-J        ...      4
Auxiliary J/K fitting basis                 ... NOT available
Auxiliary Correlation fitting basis         ... NOT available
Auxiliary 'external' fitting basis          ... NOT available
Integral threshold                          ...     1.000000e-12
Primitive cut-off                           ...     1.000000e-14
Primitive pair pre-selection threshold      ...     1.000000e-14

Calculating pre-screening integrals         ... done (  0.0 sec) Dimension = 215
Organizing shell pair data                  ... done (  0.2 sec)
Shell pair information
Total number of shell pairs                 ...     23220
Shell pairs after pre-screening             ...     20496
Total number of primitive shell pairs       ...     63868
Primitive shell pairs kept                  ...     41537
          la=0 lb=0:   4420 shell pairs
          la=1 lb=0:   5707 shell pairs
          la=1 lb=1:   1885 shell pairs
          la=2 lb=0:   3263 shell pairs
          la=2 lb=1:   2162 shell pairs
          la=2 lb=2:    638 shell pairs
          la=3 lb=0:   1140 shell pairs
          la=3 lb=1:    760 shell pairs
          la=3 lb=2:    435 shell pairs
          la=3 lb=3:     86 shell pairs

Calculating one electron integrals          ... done (  0.1 sec)
Calculating RI/J V-Matrix + Cholesky decomp.... done (  0.4 sec)
Calculating Nuclear repulsion               ... done (  0.0 sec) ENN=    921.837002578972 Eh

SHARK setup successfully completed in   1.7 seconds

Maximum memory used throughout the entire GTOINT-calculation: 32.3 MB


           ************************************************************
           *        Program running with 8 parallel MPI-processes     *
           *              working on a common directory               *
           ************************************************************
-------------------------------------------------------------------------------
                                 ORCA SCF
-------------------------------------------------------------------------------

------------
SCF SETTINGS
------------
Hamiltonian:
 Density Functional     Method          .... DFT(GTOs)
 Exchange Functional    Exchange        .... WB97X-V
 Correlation Functional Correlation     .... WB97X-V
 Gradients option       PostSCFGGA      .... off
 Hybrid DFT is turned on
   Fraction HF Exchange ScalHFX         ....  0.167000
   Scaling of DF-GGA-X  ScalDFX         ....  0.000000
   Scaling of DF-GGA-C  ScalDFC         ....  1.000000
   Scaling of DF-LDA-C  ScalLDAC        ....  1.000000
   Perturbative correction              ....  0.000000
   Density functional embedding theory  .... OFF
 Long-range corrected/Screened/Range-Separated Hybrid DFT is turned on
   Amount of maximum screened exact exchange              ....  0.833000
   Range separation parameter mu (erf(mu*r12)/r12)        ....  0.300000
 RI-approximation to the Coulomb term is turned on
   Number of AuxJ basis functions       .... 769
   RIJ-COSX (HFX calculated with COS-X)).... on


General Settings:
 Integral files         IntName         .... GGG-H_tt_012_OptFreq
 Hartree-Fock type      HFTyp           .... RHF
 Total Charge           Charge          ....    1
 Multiplicity           Mult            ....    1
 Number of Electrons    NEL             ....  100
 Basis Dimension        Dim             ....  571
 Nuclear Repulsion      ENuc            ....    921.8370025790 Eh

Convergence Acceleration:
 DIIS                   CNVDIIS         .... on
   Start iteration      DIISMaxIt       ....    12
   Startup error        DIISStart       ....  0.200000
   # of expansion vecs  DIISMaxEq       ....     5
   Bias factor          DIISBfac        ....   1.050
   Max. coefficient     DIISMaxC        ....  10.000
 Trust-Rad. Augm. Hess. CNVTRAH         .... auto
   Auto Start mean grad. ratio tolernc. ....  1.125000
   Auto Start start iteration           ....    20
   Auto Start num. interpolation iter.  ....    10
   Max. Number of Micro iterations      ....    16
   Max. Number of Macro iterations      .... Maxiter - #DIIS iter
   Number of Davidson start vectors     ....     2
   Converg. threshold I  (grad. norm)   ....   2.000e-06
   Converg. threshold II (energy diff.) ....   1.000e-09
   Grad. Scal. Fac. for Micro threshold ....   0.100
   Minimum threshold for Micro iter.    ....   0.010
   NR start threshold (gradient norm)   ....   0.001
   Initial trust radius                 ....   0.400
   Minimum AH scaling param. (alpha)    ....   1.000
   Maximum AH scaling param. (alpha)    .... 1000.000
   Orbital update algorithm             .... Taylor
   White noise on init. David. guess    .... on
   Maximum white noise                  ....   0.010
   Quad. conv. algorithm                .... NR
 SOSCF                  CNVSOSCF        .... on
   Start iteration      SOSCFMaxIt      ....   150
   Startup grad/error   SOSCFStart      ....  0.003300
 Level Shifting         CNVShift        .... on
   Level shift para.    LevelShift      ....    0.2500
   Turn off err/grad.   ShiftErr        ....    0.0010
 Zerner damping         CNVZerner       .... off
 Static damping         CNVDamp         .... on
   Fraction old density DampFac         ....    0.7000
   Max. Damping (<1)    DampMax         ....    0.9800
   Min. Damping (>=0)   DampMin         ....    0.0000
   Turn off err/grad.   DampErr         ....    0.1000
 Fernandez-Rico         CNVRico         .... off

SCF Procedure:
 Maximum # iterations   MaxIter         ....   125
 SCF integral mode      SCFMode         .... Direct
   Integral package                     .... SHARK and LIBINT hybrid scheme
 Reset frequency        DirectResetFreq ....    20
 Integral Threshold     Thresh          ....  1.000e-12 Eh
 Primitive CutOff       TCut            ....  1.000e-14 Eh

Convergence Tolerance:
 Convergence Check Mode ConvCheckMode   .... Total+1el-Energy
 Convergence forced     ConvForced      .... 0
 Energy Change          TolE            ....  1.000e-09 Eh
 1-El. energy change                    ....  1.000e-06 Eh
 Orbital Gradient       TolG            ....  2.000e-06
 Orbital Rotation angle TolX            ....  2.000e-06
 DIIS Error             TolErr          ....  1.000e-08


Diagonalization of the overlap matrix:
Smallest eigenvalue                        ... 8.212e-05
Time for diagonalization                   ...    0.085 sec
Threshold for overlap eigenvalues          ... 1.000e-08
Number of eigenvalues below threshold      ... 0
Time for construction of square roots      ...    0.375 sec
Total time needed                          ...    0.467 sec

Time for model grid setup =    0.377 sec

------------------------------
INITIAL GUESS: MODEL POTENTIAL
------------------------------
Loading Hartree-Fock densities                     ... done
Calculating cut-offs                               ... done
Initializing the effective Hamiltonian             ... done
Setting up the integral package (SHARK)            ... done
Starting the Coulomb interaction                   ... done (   0.5 sec)
Reading the grid                                   ... done
Mapping shells                                     ... done
Starting the XC term evaluation                    ... done (   0.2 sec)
  promolecular density results
     # of electrons  =    100.991322984
     EX              =    -58.967110316
     EC              =     -4.276952353
     EX+EC           =    -63.244062669
Transforming the Hamiltonian                       ... done (   0.0 sec)
Diagonalizing the Hamiltonian                      ... done (   0.0 sec)
Back transforming the eigenvectors                 ... done (   0.0 sec)
Now organizing SCF variables                       ... done
                      ------------------
                      INITIAL GUESS DONE (   1.1 sec)
                      ------------------
-------------------
DFT GRID GENERATION
-------------------

General Integration Accuracy     IntAcc      ... 4.959
Radial Grid Type                 RadialGrid  ... OptM3 with GC (2021)
Angular Grid (max. ang.)         AngularGrid ... 6 (Lebedev-590)
Angular grid pruning method      GridPruning ... 4 (adaptive)
Weight generation scheme         WeightScheme... Becke
Basis function cutoff            BFCut       ... 1.0000e-12
Integration weight cutoff        WCut        ... 1.0000e-14
Angular grids for H and He will be reduced by one unit
Partially contracted basis set               ... off
Rotationally invariant grid construction     ... off

Total number of grid points                  ...   287670
Total number of batches                      ...     4507
Average number of points per batch           ...       63
Average number of grid points per atom       ...    11507
Time for grid setup =    3.451 sec

--------------------
COSX GRID GENERATION
--------------------

GRIDX 1
-------
General Integration Accuracy     IntAcc      ... 4.020
Radial Grid Type                 RadialGrid  ... OptM3 with GC (2021)
Angular Grid (max. ang.)         AngularGrid ... 2 (Lebedev-110)
Angular grid pruning method      GridPruning ... 4 (adaptive)
Weight generation scheme         WeightScheme... Becke
Basis function cutoff            BFCut       ... 1.0000e-12
Integration weight cutoff        WCut        ... 1.0000e-14
Angular grids for H and He will be reduced by one unit
Partially contracted basis set               ... on
Rotationally invariant grid construction     ... off

Total number of grid points                  ...    31976
Total number of batches                      ...      514
Average number of points per batch           ...       62
Average number of grid points per atom       ...     1279
UseSFitting                                  ... on

GRIDX 2
-------
General Integration Accuracy     IntAcc      ... 4.338
Radial Grid Type                 RadialGrid  ... OptM3 with GC (2021)
Angular Grid (max. ang.)         AngularGrid ... 3 (Lebedev-194)
Angular grid pruning method      GridPruning ... 4 (adaptive)
Weight generation scheme         WeightScheme... Becke
Basis function cutoff            BFCut       ... 1.0000e-12
Integration weight cutoff        WCut        ... 1.0000e-14
Angular grids for H and He will be reduced by one unit
Partially contracted basis set               ... on
Rotationally invariant grid construction     ... off

Total number of grid points                  ...    69933
Total number of batches                      ...     1106
Average number of points per batch           ...       63
Average number of grid points per atom       ...     2797
UseSFitting                                  ... on

GRIDX 3
-------
General Integration Accuracy     IntAcc      ... 4.871
Radial Grid Type                 RadialGrid  ... OptM3 with GC (2021)
Angular Grid (max. ang.)         AngularGrid ... 4 (Lebedev-302)
Angular grid pruning method      GridPruning ... 4 (adaptive)
Weight generation scheme         WeightScheme... Becke
Basis function cutoff            BFCut       ... 1.0000e-12
Integration weight cutoff        WCut        ... 1.0000e-14
Angular grids for H and He will be reduced by one unit
Partially contracted basis set               ... on
Rotationally invariant grid construction     ... off

Total number of grid points                  ...   132339
Total number of batches                      ...     2083
Average number of points per batch           ...       63
Average number of grid points per atom       ...     5294
UseSFitting                                  ... on

Time for X-Grid setup             =    3.109 sec

--------------
SCF ITERATIONS
--------------
ITER       Energy         Delta-E        Max-DP      RMS-DP      [F,P]     Damp
               ***  Starting incremental Fock matrix formation  ***
  0   -701.1424142405   0.000000000000 0.06947926  0.00056199  0.3430318 0.7000
  1   -701.1934014637  -0.050987223249 0.07233729  0.00050474  0.2343605 0.7000
                               ***Turning on DIIS***
  2   -701.2221874549  -0.028785991147 0.06306057  0.00038761  0.1633984 0.7000
  3   -701.2410449426  -0.018857487692 0.05434020  0.00030473  0.1126129 0.7000
  4   -701.2543303886  -0.013285446091 0.14185628  0.00080031  0.0774153 0.0000
                      *** Initiating the SOSCF procedure ***
                           *** Shutting down DIIS ***
                      *** Re-Reading the Fockian *** 
                      *** Removing any level shift *** 
ITER      Energy       Delta-E        Grad      Rot      Max-DP    RMS-DP
  5   -701.28646161  -0.0321312245  0.001398  0.001398  0.011466  0.000080
               *** Restarting incremental Fock matrix formation ***
  6   -701.28661244  -0.0001508317  0.000843  0.001884  0.007609  0.000048
  7   -701.28665444  -0.0000419979  0.000497  0.001657  0.004835  0.000035
  8   -701.28666477  -0.0000103252  0.000284  0.000379  0.001179  0.000011
  9   -701.28666719  -0.0000024259  0.000101  0.000088  0.000874  0.000006
 10   -701.28666748  -0.0000002852  0.000031  0.000080  0.000294  0.000002
 11   -701.28666761  -0.0000001340  0.000009  0.000029  0.000027  0.000000
 12   -701.28666762  -0.0000000046  0.000004  0.000007  0.000032  0.000000
 13   -701.28666762  -0.0000000029  0.000002  0.000005  0.000011  0.000000
 14   -701.28666762  -0.0000000003  0.000002  0.000004  0.000004  0.000000
 15   -701.28666762   0.0000000000  0.000001  0.000001  0.000002  0.000000
                  ***Gradient check signals convergence***
              ***Rediagonalizing the Fockian in SOSCF/NRSCF***

               *****************************************************
               *                     SUCCESS                       *
               *           SCF CONVERGED AFTER  16 CYCLES          *
               *****************************************************

Old exchange energy                            =    -27.830524172 Eh
New exchange energy                            =    -27.830523368 Eh
Exchange energy change after final integration =      0.000000804 Eh
Total energy after final integration           =   -701.286666816 Eh
Final COS-X integration done in                =    34.927 sec

----------------
TOTAL SCF ENERGY
----------------

Total Energy       :         -701.28666682 Eh          -19082.98036 eV

Components:
Nuclear Repulsion  :          921.83700258 Eh           25084.46011 eV
Electronic Energy  :        -1623.12366939 Eh          -44167.44047 eV
One Electron Energy:        -2771.12859805 Eh          -75406.24273 eV
Two Electron Energy:         1148.00492866 Eh           31238.80226 eV
Max COSX asymmetry :            0.00000072 Eh               0.00002 eV

Virial components:
Potential Energy   :        -1399.24287852 Eh          -38075.33444 eV
Kinetic Energy     :          697.95621170 Eh           18992.35407 eV
Virial Ratio       :            2.00477173


DFT components:
N(Alpha)           :       49.999998557782 electrons
N(Beta)            :       49.999998557782 electrons
N(Total)           :       99.999997115565 electrons
E(X)               :      -60.043496814134 Eh       
E(C)               :       -4.271601342495 Eh       
E(XC)              :      -64.315098156629 Eh       
DFET-embed. en.    :        0.000000000000 Eh       

---------------
SCF CONVERGENCE
---------------

  Last Energy change         ...    1.2360e-09  Tolerance :   1.0000e-09
  Last MAX-Density change    ...    1.9984e-15  Tolerance :   1.0000e-08
  Last RMS-Density change    ...    1.4898e-17  Tolerance :   1.0000e-09
  Last Orbital Gradient      ...    1.7846e-07  Tolerance :   2.0000e-06
  Last Orbital Rotation      ...    7.2771e-07  Tolerance :   2.0000e-06

             **** THE GBW FILE WAS UPDATED (GGG-H_tt_012_OptFreq.gbw) ****
             **** DENSITY GGG-H_tt_012_OptFreq.scfp WAS UPDATED ****
             **** ENERGY FILE WAS UPDATED (GGG-H_tt_012_OptFreq.en.tmp) ****
             **** THE GBW FILE WAS UPDATED (GGG-H_tt_012_OptFreq.gbw) ****
             **** DENSITY GGG-H_tt_012_OptFreq.scfp WAS UPDATED ****
----------------
ORBITAL ENERGIES
----------------

  NO   OCC          E(Eh)            E(eV) 
   0   2.0000     -19.399742      -527.8938 
   1   2.0000     -19.366052      -526.9771 
   2   2.0000     -19.355813      -526.6984 
   3   2.0000     -19.335066      -526.1339 
   4   2.0000     -14.692506      -399.8034 
   5   2.0000     -14.616517      -397.7357 
   6   2.0000     -14.614680      -397.6857 
   7   2.0000     -10.565598      -287.5045 
   8   2.0000     -10.554183      -287.1939 
   9   2.0000     -10.546913      -286.9961 
  10   2.0000     -10.521075      -286.2930 
  11   2.0000     -10.489299      -285.4283 
  12   2.0000     -10.474393      -285.0227 
  13   2.0000      -1.373585       -37.3772 
  14   2.0000      -1.360031       -37.0083 
  15   2.0000      -1.340120       -36.4665 
  16   2.0000      -1.290320       -35.1114 
  17   2.0000      -1.284574       -34.9550 
  18   2.0000      -1.233340       -33.5609 
  19   2.0000      -1.225174       -33.3387 
  20   2.0000      -1.066876       -29.0312 
  21   2.0000      -1.033894       -28.1337 
  22   2.0000      -0.991575       -26.9821 
  23   2.0000      -0.900073       -24.4922 
  24   2.0000      -0.890440       -24.2301 
  25   2.0000      -0.873655       -23.7734 
  26   2.0000      -0.866120       -23.5683 
  27   2.0000      -0.850682       -23.1482 
  28   2.0000      -0.817659       -22.2496 
  29   2.0000      -0.808614       -22.0035 
  30   2.0000      -0.791704       -21.5434 
  31   2.0000      -0.771815       -21.0021 
  32   2.0000      -0.762262       -20.7422 
  33   2.0000      -0.746148       -20.3037 
  34   2.0000      -0.726443       -19.7675 
  35   2.0000      -0.716499       -19.4969 
  36   2.0000      -0.704726       -19.1766 
  37   2.0000      -0.699059       -19.0224 
  38   2.0000      -0.690401       -18.7868 
  39   2.0000      -0.681902       -18.5555 
  40   2.0000      -0.662207       -18.0196 
  41   2.0000      -0.655434       -17.8353 
  42   2.0000      -0.642801       -17.4915 
  43   2.0000      -0.626372       -17.0445 
  44   2.0000      -0.572243       -15.5715 
  45   2.0000      -0.556346       -15.1389 
  46   2.0000      -0.555040       -15.1034 
  47   2.0000      -0.546778       -14.8786 
  48   2.0000      -0.534895       -14.5552 
  49   2.0000      -0.515389       -14.0245 
  50   0.0000      -0.108252        -2.9457 
  51   0.0000      -0.073512        -2.0004 
  52   0.0000      -0.060179        -1.6375 
  53   0.0000      -0.046840        -1.2746 
  54   0.0000      -0.028121        -0.7652 
  55   0.0000      -0.022609        -0.6152 
  56   0.0000       0.001089         0.0296 
  57   0.0000       0.008592         0.2338 
  58   0.0000       0.017413         0.4738 
  59   0.0000       0.025682         0.6988 
  60   0.0000       0.039994         1.0883 
  61   0.0000       0.043158         1.1744 
  62   0.0000       0.054620         1.4863 
  63   0.0000       0.063180         1.7192 
  64   0.0000       0.067702         1.8423 
  65   0.0000       0.077002         2.0953 
  66   0.0000       0.088861         2.4180 
  67   0.0000       0.096518         2.6264 
  68   0.0000       0.105774         2.8782 
  69   0.0000       0.111011         3.0208 
  70   0.0000       0.116343         3.1658 
  71   0.0000       0.124718         3.3937 
  72   0.0000       0.129882         3.5343 
  73   0.0000       0.136525         3.7150 
  74   0.0000       0.144234         3.9248 
  75   0.0000       0.164549         4.4776 
  76   0.0000       0.170918         4.6509 
  77   0.0000       0.193138         5.2556 
  78   0.0000       0.199069         5.4169 
  79   0.0000       0.215719         5.8700 
  80   0.0000       0.216941         5.9033 
  81   0.0000       0.223147         6.0721 
  82   0.0000       0.231313         6.2944 
  83   0.0000       0.234888         6.3916 
  84   0.0000       0.244150         6.6437 
  85   0.0000       0.258832         7.0432 
  86   0.0000       0.261323         7.1110 
  87   0.0000       0.273550         7.4437 
  88   0.0000       0.278948         7.5906 
  89   0.0000       0.288187         7.8420 
  90   0.0000       0.297674         8.1001 
  91   0.0000       0.309986         8.4352 
  92   0.0000       0.312247         8.4967 
  93   0.0000       0.320252         8.7145 
  94   0.0000       0.327231         8.9044 
  95   0.0000       0.332677         9.0526 
  96   0.0000       0.337890         9.1945 
  97   0.0000       0.339015         9.2251 
  98   0.0000       0.345357         9.3976 
  99   0.0000       0.354102         9.6356 
 100   0.0000       0.358002         9.7417 
 101   0.0000       0.369343        10.0503 
 102   0.0000       0.373473        10.1627 
 103   0.0000       0.380737        10.3604 
 104   0.0000       0.386601        10.5199 
 105   0.0000       0.392032        10.6677 
 106   0.0000       0.399272        10.8647 
 107   0.0000       0.407916        11.1000 
 108   0.0000       0.419171        11.4062 
 109   0.0000       0.431299        11.7363 
 110   0.0000       0.441259        12.0073 
 111   0.0000       0.445341        12.1183 
 112   0.0000       0.451548        12.2872 
 113   0.0000       0.455697        12.4001 
 114   0.0000       0.462626        12.5887 
 115   0.0000       0.471433        12.8284 
 116   0.0000       0.487150        13.2560 
 117   0.0000       0.493018        13.4157 
 118   0.0000       0.514923        14.0118 
 119   0.0000       0.524214        14.2646 
 120   0.0000       0.530534        14.4366 
 121   0.0000       0.542257        14.7556 
 122   0.0000       0.552007        15.0209 
 123   0.0000       0.567542        15.4436 
 124   0.0000       0.580106        15.7855 
 125   0.0000       0.593718        16.1559 
 126   0.0000       0.602842        16.4042 
 127   0.0000       0.617713        16.8088 
 128   0.0000       0.619483        16.8570 
 129   0.0000       0.636247        17.3132 
 130   0.0000       0.646206        17.5842 
 131   0.0000       0.651329        17.7236 
 132   0.0000       0.663663        18.0592 
 133   0.0000       0.680466        18.5164 
 134   0.0000       0.687302        18.7024 
 135   0.0000       0.691213        18.8089 
 136   0.0000       0.711739        19.3674 
 137   0.0000       0.714152        19.4331 
 138   0.0000       0.723692        19.6927 
 139   0.0000       0.739081        20.1114 
 140   0.0000       0.755157        20.5489 
 141   0.0000       0.767793        20.8927 
 142   0.0000       0.782136        21.2830 
 143   0.0000       0.802307        21.8319 
 144   0.0000       0.816819        22.2268 
 145   0.0000       0.821156        22.3448 
 146   0.0000       0.824210        22.4279 
 147   0.0000       0.832603        22.6563 
 148   0.0000       0.838543        22.8179 
 149   0.0000       0.851667        23.1750 
 150   0.0000       0.858087        23.3497 
 151   0.0000       0.867348        23.6017 
 152   0.0000       0.878579        23.9074 
 153   0.0000       0.896389        24.3920 
 154   0.0000       0.906819        24.6758 
 155   0.0000       0.908486        24.7212 
 156   0.0000       0.930449        25.3188 
 157   0.0000       0.937082        25.4993 
 158   0.0000       0.946589        25.7580 
 159   0.0000       0.950650        25.8685 
 160   0.0000       0.961878        26.1740 
 161   0.0000       0.970524        26.4093 
 162   0.0000       0.993292        27.0288 
 163   0.0000       1.004125        27.3236 
 164   0.0000       1.013185        27.5702 
 165   0.0000       1.019558        27.7436 
 166   0.0000       1.026982        27.9456 
 167   0.0000       1.034506        28.1504 
 168   0.0000       1.045703        28.4550 
 169   0.0000       1.057635        28.7797 
 170   0.0000       1.064162        28.9573 
 171   0.0000       1.078728        29.3537 
 172   0.0000       1.091848        29.7107 
 173   0.0000       1.099473        29.9182 
 174   0.0000       1.108017        30.1507 
 175   0.0000       1.119531        30.4640 
 176   0.0000       1.130450        30.7611 
 177   0.0000       1.144738        31.1499 
 178   0.0000       1.157322        31.4923 
 179   0.0000       1.165955        31.7272 
 180   0.0000       1.176113        32.0037 
 181   0.0000       1.192301        32.4442 
 182   0.0000       1.201089        32.6833 
 183   0.0000       1.205163        32.7942 
 184   0.0000       1.217054        33.1177 
 185   0.0000       1.223536        33.2941 
 186   0.0000       1.230509        33.4838 
 187   0.0000       1.235033        33.6070 
 188   0.0000       1.243390        33.8344 
 189   0.0000       1.255176        34.1551 
 190   0.0000       1.264864        34.4187 
 191   0.0000       1.284709        34.9587 
 192   0.0000       1.289399        35.0863 
 193   0.0000       1.314424        35.7673 
 194   0.0000       1.322432        35.9852 
 195   0.0000       1.333614        36.2895 
 196   0.0000       1.347284        36.6615 
 197   0.0000       1.361511        37.0486 
 198   0.0000       1.371461        37.3194 
 199   0.0000       1.381705        37.5981 
 200   0.0000       1.390305        37.8321 
 201   0.0000       1.399890        38.0929 
 202   0.0000       1.413960        38.4758 
 203   0.0000       1.421281        38.6750 
 204   0.0000       1.428943        38.8835 
 205   0.0000       1.441152        39.2157 
 206   0.0000       1.446890        39.3719 
 207   0.0000       1.458491        39.6876 
 208   0.0000       1.470615        40.0175 
 209   0.0000       1.480737        40.2929 
 210   0.0000       1.489998        40.5449 
 211   0.0000       1.508000        41.0348 
 212   0.0000       1.511043        41.1176 
 213   0.0000       1.533183        41.7200 
 214   0.0000       1.538244        41.8577 
 215   0.0000       1.540951        41.9314 
 216   0.0000       1.564086        42.5609 
 217   0.0000       1.580599        43.0103 
 218   0.0000       1.584173        43.1075 
 219   0.0000       1.595105        43.4050 
 220   0.0000       1.613135        43.8956 
 221   0.0000       1.626200        44.2511 
 222   0.0000       1.649094        44.8741 
 223   0.0000       1.654686        45.0263 
 224   0.0000       1.682593        45.7857 
 225   0.0000       1.697922        46.2028 
 226   0.0000       1.710169        46.5361 
 227   0.0000       1.741039        47.3761 
 228   0.0000       1.751047        47.6484 
 229   0.0000       1.768972        48.1362 
 230   0.0000       1.792916        48.7877 
 231   0.0000       1.805517        49.1306 
 232   0.0000       1.831586        49.8400 
 233   0.0000       1.837963        50.0135 
 234   0.0000       1.856209        50.5100 
 235   0.0000       1.876169        51.0531 
 236   0.0000       1.886424        51.3322 
 237   0.0000       1.909163        51.9510 
 238   0.0000       1.922809        52.3223 
 239   0.0000       1.956910        53.2502 
 240   0.0000       1.964158        53.4474 
 241   0.0000       1.972946        53.6866 
 242   0.0000       1.992521        54.2193 
 243   0.0000       2.008868        54.6641 
 244   0.0000       2.042384        55.5761 
 245   0.0000       2.060592        56.0716 
 246   0.0000       2.074354        56.4461 
 247   0.0000       2.092011        56.9265 
 248   0.0000       2.104196        57.2581 
 249   0.0000       2.114773        57.5459 
 250   0.0000       2.138333        58.1870 
 251   0.0000       2.151368        58.5417 
 252   0.0000       2.154700        58.6324 
 253   0.0000       2.172516        59.1172 
 254   0.0000       2.189246        59.5724 
 255   0.0000       2.211783        60.1857 
 256   0.0000       2.235914        60.8423 
 257   0.0000       2.240780        60.9747 
 258   0.0000       2.262188        61.5573 
 259   0.0000       2.286474        62.2181 
 260   0.0000       2.300483        62.5993 
 261   0.0000       2.312523        62.9270 
 262   0.0000       2.332042        63.4581 
 263   0.0000       2.350808        63.9687 
 264   0.0000       2.370259        64.4980 
 265   0.0000       2.384723        64.8916 
 266   0.0000       2.418721        65.8168 
 267   0.0000       2.442290        66.4581 
 268   0.0000       2.467660        67.1485 
 269   0.0000       2.475132        67.3518 
 270   0.0000       2.480268        67.4915 
 271   0.0000       2.505264        68.1717 
 272   0.0000       2.521588        68.6159 
 273   0.0000       2.539813        69.1118 
 274   0.0000       2.552981        69.4702 
 275   0.0000       2.570188        69.9384 
 276   0.0000       2.573326        70.0238 
 277   0.0000       2.587552        70.4109 
 278   0.0000       2.594553        70.6014 
 279   0.0000       2.615355        71.1674 
 280   0.0000       2.626054        71.4586 
 281   0.0000       2.635747        71.7223 
 282   0.0000       2.658824        72.3503 
 283   0.0000       2.665946        72.5441 
 284   0.0000       2.681532        72.9682 
 285   0.0000       2.685631        73.0797 
 286   0.0000       2.713160        73.8288 
 287   0.0000       2.717344        73.9427 
 288   0.0000       2.730334        74.2962 
 289   0.0000       2.750134        74.8350 
 290   0.0000       2.760747        75.1237 
 291   0.0000       2.762983        75.1846 
 292   0.0000       2.778975        75.6198 
 293   0.0000       2.809277        76.4443 
 294   0.0000       2.817040        76.6556 
 295   0.0000       2.855102        77.6913 
 296   0.0000       2.858858        77.7935 
 297   0.0000       2.861687        77.8705 
 298   0.0000       2.867575        78.0307 
 299   0.0000       2.881611        78.4126 
 300   0.0000       2.898715        78.8780 
 301   0.0000       2.904946        79.0476 
 302   0.0000       2.915730        79.3410 
 303   0.0000       2.928328        79.6839 
 304   0.0000       2.941310        80.0371 
 305   0.0000       2.944961        80.1365 
 306   0.0000       2.957076        80.4661 
 307   0.0000       2.976732        81.0010 
 308   0.0000       2.982425        81.1559 
 309   0.0000       2.996049        81.5266 
 310   0.0000       3.002526        81.7029 
 311   0.0000       3.007546        81.8395 
 312   0.0000       3.024382        82.2976 
 313   0.0000       3.030041        82.4516 
 314   0.0000       3.042323        82.7858 
 315   0.0000       3.047123        82.9164 
 316   0.0000       3.053219        83.0823 
 317   0.0000       3.068620        83.5014 
 318   0.0000       3.075967        83.7013 
 319   0.0000       3.083422        83.9042 
 320   0.0000       3.089289        84.0638 
 321   0.0000       3.092333        84.1467 
 322   0.0000       3.112532        84.6963 
 323   0.0000       3.119335        84.8814 
 324   0.0000       3.125744        85.0558 
 325   0.0000       3.137687        85.3808 
 326   0.0000       3.153672        85.8158 
 327   0.0000       3.168578        86.2214 
 328   0.0000       3.173705        86.3609 
 329   0.0000       3.176256        86.4303 
 330   0.0000       3.191729        86.8514 
 331   0.0000       3.210732        87.3685 
 332   0.0000       3.227450        87.8234 
 333   0.0000       3.237691        88.1021 
 334   0.0000       3.247837        88.3781 
 335   0.0000       3.254432        88.5576 
 336   0.0000       3.266905        88.8970 
 337   0.0000       3.279146        89.2301 
 338   0.0000       3.293246        89.6138 
 339   0.0000       3.297863        89.7394 
 340   0.0000       3.303574        89.8948 
 341   0.0000       3.318627        90.3044 
 342   0.0000       3.325992        90.5048 
 343   0.0000       3.333774        90.7166 
 344   0.0000       3.358103        91.3786 
 345   0.0000       3.359820        91.4253 
 346   0.0000       3.371833        91.7522 
 347   0.0000       3.375760        91.8591 
 348   0.0000       3.386259        92.1448 
 349   0.0000       3.397545        92.4519 
 350   0.0000       3.406580        92.6978 
 351   0.0000       3.416210        92.9598 
 352   0.0000       3.429970        93.3342 
 353   0.0000       3.442934        93.6870 
 354   0.0000       3.453248        93.9677 
 355   0.0000       3.462619        94.2227 
 356   0.0000       3.472487        94.4912 
 357   0.0000       3.478300        94.6494 
 358   0.0000       3.491894        95.0193 
 359   0.0000       3.507254        95.4372 
 360   0.0000       3.519061        95.7585 
 361   0.0000       3.530022        96.0568 
 362   0.0000       3.536139        96.2232 
 363   0.0000       3.550974        96.6269 
 364   0.0000       3.561166        96.9043 
 365   0.0000       3.579359        97.3993 
 366   0.0000       3.583573        97.5140 
 367   0.0000       3.586716        97.5995 
 368   0.0000       3.602757        98.0360 
 369   0.0000       3.610352        98.2427 
 370   0.0000       3.620029        98.5060 
 371   0.0000       3.638959        99.0211 
 372   0.0000       3.642154        99.1080 
 373   0.0000       3.656227        99.4910 
 374   0.0000       3.660603        99.6101 
 375   0.0000       3.661763        99.6416 
 376   0.0000       3.696650       100.5910 
 377   0.0000       3.706855       100.8687 
 378   0.0000       3.713954       101.0618 
 379   0.0000       3.737364       101.6989 
 380   0.0000       3.749723       102.0352 
 381   0.0000       3.758862       102.2838 
 382   0.0000       3.772070       102.6432 
 383   0.0000       3.789503       103.1176 
 384   0.0000       3.800084       103.4055 
 385   0.0000       3.802938       103.4832 
 386   0.0000       3.822349       104.0114 
 387   0.0000       3.834064       104.3302 
 388   0.0000       3.859004       105.0088 
 389   0.0000       3.871506       105.3490 
 390   0.0000       3.884873       105.7128 
 391   0.0000       3.901384       106.1621 
 392   0.0000       3.910629       106.4136 
 393   0.0000       3.927937       106.8846 
 394   0.0000       3.930698       106.9597 
 395   0.0000       3.944580       107.3375 
 396   0.0000       3.954436       107.6057 
 397   0.0000       3.967364       107.9575 
 398   0.0000       3.975059       108.1668 
 399   0.0000       3.990116       108.5766 
 400   0.0000       4.006587       109.0248 
 401   0.0000       4.026705       109.5722 
 402   0.0000       4.031230       109.6953 
 403   0.0000       4.052238       110.2670 
 404   0.0000       4.062207       110.5383 
 405   0.0000       4.065731       110.6342 
 406   0.0000       4.085802       111.1803 
 407   0.0000       4.092096       111.3516 
 408   0.0000       4.099047       111.5407 
 409   0.0000       4.107769       111.7781 
 410   0.0000       4.140312       112.6636 
 411   0.0000       4.151508       112.9683 
 412   0.0000       4.158763       113.1657 
 413   0.0000       4.164600       113.3245 
 414   0.0000       4.174993       113.6073 
 415   0.0000       4.180604       113.7600 
 416   0.0000       4.205989       114.4508 
 417   0.0000       4.212308       114.6227 
 418   0.0000       4.238443       115.3339 
 419   0.0000       4.250634       115.6656 
 420   0.0000       4.264196       116.0347 
 421   0.0000       4.278760       116.4310 
 422   0.0000       4.287198       116.6606 
 423   0.0000       4.298430       116.9662 
 424   0.0000       4.309684       117.2725 
 425   0.0000       4.326505       117.7302 
 426   0.0000       4.341069       118.1265 
 427   0.0000       4.353099       118.4539 
 428   0.0000       4.372129       118.9717 
 429   0.0000       4.400380       119.7404 
 430   0.0000       4.415625       120.1553 
 431   0.0000       4.437376       120.7471 
 432   0.0000       4.439101       120.7941 
 433   0.0000       4.473796       121.7382 
 434   0.0000       4.495286       122.3229 
 435   0.0000       4.520051       122.9968 
 436   0.0000       4.538337       123.4944 
 437   0.0000       4.552386       123.8767 
 438   0.0000       4.557171       124.0069 
 439   0.0000       4.568381       124.3120 
 440   0.0000       4.609113       125.4203 
 441   0.0000       4.628883       125.9583 
 442   0.0000       4.632117       126.0463 
 443   0.0000       4.646740       126.4442 
 444   0.0000       4.682206       127.4093 
 445   0.0000       4.697082       127.8141 
 446   0.0000       4.701409       127.9318 
 447   0.0000       4.718544       128.3981 
 448   0.0000       4.732721       128.7839 
 449   0.0000       4.750184       129.2591 
 450   0.0000       4.754023       129.3635 
 451   0.0000       4.763050       129.6092 
 452   0.0000       4.782111       130.1278 
 453   0.0000       4.785166       130.2110 
 454   0.0000       4.829227       131.4099 
 455   0.0000       4.837373       131.6316 
 456   0.0000       4.853322       132.0656 
 457   0.0000       4.912160       133.6667 
 458   0.0000       4.934444       134.2731 
 459   0.0000       4.957556       134.9020 
 460   0.0000       4.965070       135.1064 
 461   0.0000       4.971635       135.2851 
 462   0.0000       4.977613       135.4477 
 463   0.0000       5.018741       136.5669 
 464   0.0000       5.028867       136.8424 
 465   0.0000       5.039593       137.1343 
 466   0.0000       5.064057       137.8000 
 467   0.0000       5.082817       138.3105 
 468   0.0000       5.092633       138.5776 
 469   0.0000       5.106270       138.9487 
 470   0.0000       5.120437       139.3342 
 471   0.0000       5.133879       139.6999 
 472   0.0000       5.139040       139.8404 
 473   0.0000       5.152479       140.2061 
 474   0.0000       5.164845       140.5426 
 475   0.0000       5.168858       140.6518 
 476   0.0000       5.181614       140.9989 
 477   0.0000       5.198066       141.4466 
 478   0.0000       5.209791       141.7656 
 479   0.0000       5.218834       142.0117 
 480   0.0000       5.244129       142.7000 
 481   0.0000       5.251725       142.9067 
 482   0.0000       5.266584       143.3110 
 483   0.0000       5.291659       143.9934 
 484   0.0000       5.303011       144.3023 
 485   0.0000       5.309008       144.4655 
 486   0.0000       5.333047       145.1196 
 487   0.0000       5.337673       145.2455 
 488   0.0000       5.371817       146.1746 
 489   0.0000       5.409192       147.1916 
 490   0.0000       5.432072       147.8142 
 491   0.0000       5.451189       148.3344 
 492   0.0000       5.467096       148.7672 
 493   0.0000       5.480988       149.1453 
 494   0.0000       5.500408       149.6737 
 495   0.0000       5.524158       150.3200 
 496   0.0000       5.534166       150.5923 
 497   0.0000       5.553947       151.1306 
 498   0.0000       5.556254       151.1934 
 499   0.0000       5.567767       151.5066 
 500   0.0000       5.589785       152.1058 
 501   0.0000       5.606208       152.5527 
 502   0.0000       5.621673       152.9735 
 503   0.0000       5.642175       153.5314 
 504   0.0000       5.642744       153.5469 
 505   0.0000       5.662211       154.0766 
 506   0.0000       5.684529       154.6839 
 507   0.0000       5.717989       155.5944 
 508   0.0000       5.735956       156.0833 
 509   0.0000       5.770122       157.0130 
 510   0.0000       5.803391       157.9183 
 511   0.0000       5.837963       158.8590 
 512   0.0000       5.843174       159.0008 
 513   0.0000       5.879249       159.9825 
 514   0.0000       5.915302       160.9636 
 515   0.0000       5.921666       161.1367 
 516   0.0000       5.971015       162.4796 
 517   0.0000       5.986317       162.8960 
 518   0.0000       6.009876       163.5370 
 519   0.0000       6.068024       165.1193 
 520   0.0000       6.096642       165.8981 
 521   0.0000       6.124989       166.6694 
 522   0.0000       6.156250       167.5201 
 523   0.0000       6.220915       169.2797 
 524   0.0000       6.297026       171.3508 
 525   0.0000       6.299850       171.4276 
 526   0.0000       6.323467       172.0703 
 527   0.0000       6.332128       172.3060 
 528   0.0000       6.368619       173.2989 
 529   0.0000       6.408850       174.3937 
 530   0.0000       6.417359       174.6252 
 531   0.0000       6.423285       174.7865 
 532   0.0000       6.461348       175.8222 
 533   0.0000       6.493724       176.7032 
 534   0.0000       6.500728       176.8938 
 535   0.0000       6.509511       177.1328 
 536   0.0000       6.537980       177.9075 
 537   0.0000       6.574867       178.9112 
 538   0.0000       6.642883       180.7620 
 539   0.0000       6.683875       181.8775 
 540   0.0000       6.700323       182.3251 
 541   0.0000       6.720561       182.8758 
 542   0.0000       6.740937       183.4302 
 543   0.0000       6.762116       184.0065 
 544   0.0000       6.812286       185.3717 
 545   0.0000       6.843103       186.2103 
 546   0.0000       6.896141       187.6535 
 547   0.0000       6.930836       188.5976 
 548   0.0000       6.983958       190.0431 
 549   0.0000       6.999338       190.4617 
 550   0.0000       7.022609       191.0949 
 551   0.0000       7.053063       191.9236 
 552   0.0000       7.086163       192.8243 
 553   0.0000       7.103563       193.2978 
 554   0.0000       7.114872       193.6055 
 555   0.0000       7.203575       196.0192 
 556   0.0000       7.391001       201.1194 
 557   0.0000       7.600107       206.8094 
 558   0.0000      23.101070       628.6121 
 559   0.0000      23.136704       629.5817 
 560   0.0000      23.176443       630.6631 
 561   0.0000      23.246821       632.5782 
 562   0.0000      23.308289       634.2508 
 563   0.0000      23.364362       635.7766 
 564   0.0000      32.731550       890.6707 
 565   0.0000      32.772814       891.7936 
 566   0.0000      32.884232       894.8254 
 567   0.0000      43.858609      1193.4534 
 568   0.0000      43.921852      1195.1744 
 569   0.0000      43.929440      1195.3808 
 570   0.0000      44.093533      1199.8460 

                    ********************************
                    * MULLIKEN POPULATION ANALYSIS *
                    ********************************

-----------------------
MULLIKEN ATOMIC CHARGES
-----------------------
   0 N :   -0.186968
   1 H :    0.211165
   2 C :   -0.069775
   3 C :    0.267927
   4 H :    0.147859
   5 H :    0.152097
   6 O :   -0.245637
   7 C :    0.241938
   8 C :   -0.067147
   9 O :   -0.441238
  10 N :   -0.161782
  11 H :    0.133642
  12 H :    0.153870
  13 H :    0.198586
  14 C :    0.219201
  15 C :   -0.128938
  16 O :   -0.377934
  17 H :    0.177070
  18 H :    0.153369
  19 O :   -0.290148
  20 H :    0.246254
  21 N :   -0.068140
  22 H :    0.241893
  23 H :    0.249654
  24 H :    0.243180
Sum of atomic charges:    1.0000000

--------------------------------
MULLIKEN REDUCED ORBITAL CHARGES
--------------------------------
  0 N s       :     3.425955  s :     3.425955
      pz      :     1.201100  p :     3.701662
      px      :     1.428041
      py      :     1.072521
      dz2     :     0.011148  d :     0.055560
      dxz     :     0.007799
      dyz     :     0.016938
      dx2y2   :     0.009901
      dxy     :     0.009775
      f0      :     0.000495  f :     0.003790
      f+1     :     0.000616
      f-1     :     0.000414
      f+2     :     0.000630
      f-2     :     0.000496
      f+3     :     0.000507
      f-3     :     0.000632
  1 H s       :     0.725051  s :     0.725051
      pz      :     0.020352  p :     0.058576
      px      :     0.019851
      py      :     0.018373
      dz2     :     0.001174  d :     0.005208
      dxz     :     0.000577
      dyz     :     0.001270
      dx2y2   :     0.000861
      dxy     :     0.001324
  2 C s       :     3.176369  s :     3.176369
      pz      :     0.860842  p :     2.780316
      px      :     0.901408
      py      :     1.018066
      dz2     :     0.034537  d :     0.105633
      dxz     :     0.025647
      dyz     :     0.010799
      dx2y2   :     0.016367
      dxy     :     0.018284
      f0      :     0.001643  f :     0.007457
      f+1     :     0.001687
      f-1     :     0.000739
      f+2     :     0.001048
      f-2     :     0.001020
      f+3     :     0.000639
      f-3     :     0.000681
  3 C s       :     3.101643  s :     3.101643
      pz      :     0.717234  p :     2.338589
      px      :     0.822410
      py      :     0.798945
      dz2     :     0.084374  d :     0.268390
      dxz     :     0.071996
      dyz     :     0.062155
      dx2y2   :     0.023307
      dxy     :     0.026558
      f0      :     0.006453  f :     0.023451
      f+1     :     0.003470
      f-1     :     0.003440
      f+2     :     0.003786
      f-2     :     0.004066
      f+3     :     0.001138
      f-3     :     0.001097
  4 H s       :     0.816225  s :     0.816225
      pz      :     0.007701  p :     0.033898
      px      :     0.010072
      py      :     0.016124
      dz2     :     0.000089  d :     0.002018
      dxz     :     0.000186
      dyz     :     0.000673
      dx2y2   :     0.000453
      dxy     :     0.000615
  5 H s       :     0.812611  s :     0.812611
      pz      :     0.014339  p :     0.033155
      px      :     0.010030
      py      :     0.008785
      dz2     :     0.000730  d :     0.002137
      dxz     :     0.000419
      dyz     :     0.000523
      dx2y2   :     0.000195
      dxy     :     0.000269
  6 O s       :     3.795574  s :     3.795574
      pz      :     1.423538  p :     4.414420
      px      :     1.557905
      py      :     1.432977
      dz2     :     0.009716  d :     0.033663
      dxz     :     0.009091
      dyz     :     0.009501
      dx2y2   :     0.003267
      dxy     :     0.002088
      f0      :     0.000495  f :     0.001980
      f+1     :     0.000423
      f-1     :     0.000394
      f+2     :     0.000385
[...]
     53      -0.000496   0.002714  -0.436239  -0.055300   0.006236   0.002676
     54       0.000824  -0.002994   0.392362   0.015821  -0.020496   0.003191
     55       0.001024  -0.003587   0.501365   0.021370  -0.019975   0.004693
     56       0.000016  -0.000194   0.011517  -0.002425  -0.009065   0.001309
     57      -0.000155   0.000028   0.000074  -0.000269   0.000425  -0.000027
     58       0.000136  -0.000015  -0.000063   0.000399   0.000036   0.000035
     59       0.000251   0.000063  -0.000107   0.000412  -0.001988   0.000392
     60      -0.000674  -0.000226  -0.000368   0.001563   0.004338  -0.001306
     61       0.001268   0.000422   0.000594  -0.001034  -0.006321   0.001058
     62       0.001208  -0.000708   0.000344  -0.002008   0.009692  -0.002061
     63       0.000510  -0.000690   0.006277  -0.049415   0.053667   0.028737
     64      -0.000017   0.000075   0.000455   0.013292   0.042957  -0.066824
     65      -0.000332   0.000516  -0.003824   0.043739   0.004186   0.021981
     66       0.000194  -0.000175   0.002356  -0.047349  -0.069169  -0.431805
     67      -0.000469   0.000625  -0.004444   0.093541   0.133134   0.804799
     68       0.000235  -0.000404   0.002450  -0.049802  -0.061576  -0.360569
     69      -0.001023   0.000538  -0.012438  -0.050233  -0.637561   0.106226
     70      -0.001013   0.000724  -0.017670  -0.045899  -0.746067   0.105544
     71      -0.000054   0.000180   0.005483   0.007415  -0.033970   0.006842
     72      -0.005831   0.008785  -0.068185   0.766710  -0.037258  -0.066821
     73       0.001609  -0.002273   0.017546  -0.216512   0.022249   0.008077
     74       0.004409  -0.007121   0.042300  -0.578672   0.039835   0.054618
                 72         73         74    
      0      -0.000066  -0.015176  -0.000337
      1       0.000139   0.059706   0.000168
      2      -0.000166  -0.041380  -0.000243
      3       0.000532   0.206030   0.004219
      4      -0.002164  -0.799316  -0.006637
      5       0.001691   0.559375   0.003343
      6       0.000006   0.000984  -0.000016
      7       0.000001   0.000399   0.000021
      8       0.000018   0.001257  -0.000555
      9      -0.000008   0.000257   0.000688
     10      -0.000015  -0.000077  -0.001069
     11       0.000129   0.000152   0.002554
     12      -0.000049  -0.002875   0.000413
     13      -0.000045  -0.007906   0.000347
     14      -0.000022  -0.001751   0.000284
     15      -0.000011  -0.000792   0.001539
     16       0.000009  -0.000364  -0.000805
     17      -0.000003   0.005264   0.001073
     18      -0.000013   0.000019  -0.000183
     19       0.000023  -0.000014   0.000507
     20      -0.000059   0.000011  -0.001495
     21       0.000036  -0.000726   0.000097
     22      -0.000016  -0.000525   0.000704
     23      -0.000177  -0.001346  -0.000337
     24       0.000843   0.000051   0.000055
     25      -0.000540   0.000233  -0.000009
     26      -0.001238   0.000034  -0.000019
     27       0.000005   0.000192   0.000188
     28      -0.000109  -0.001296  -0.000260
     29      -0.000095   0.000550   0.000258
     30       0.038154  -0.000128  -0.000528
     31       0.061785  -0.000127  -0.000348
     32      -0.011695   0.000021   0.000028
     33      -0.000544   0.000011   0.000419
     34      -0.008561  -0.002761  -0.000343
     35       0.002882   0.001083   0.000798
     36      -0.007726   0.000085  -0.000359
     37      -0.000337  -0.000472  -0.000266
     38       0.002671  -0.000041   0.000122
     39      -0.503599   0.001492   0.002196
     40      -0.841428   0.002368   0.004297
     41       0.180963  -0.000364  -0.000743
     42      -0.001183  -0.000027   0.000801
     43       0.001275   0.000019   0.000694
     44      -0.000757   0.000072  -0.000145
     45       0.000284  -0.000001  -0.000051
     46       0.000176   0.000013  -0.000028
     47       0.000234   0.000032  -0.000037
     48      -0.000831   0.000024  -0.000265
     49      -0.000827  -0.000007  -0.000562
     50       0.000018  -0.000057   0.000156
     51      -0.000929   0.000000  -0.000270
     52       0.000150  -0.000007   0.000172
     53      -0.000305   0.000045   0.000275
     54      -0.004198  -0.000008   0.000142
     55      -0.003541   0.000058  -0.000570
     56      -0.000166   0.000013   0.000530
     57       0.000148  -0.000185   0.025548
     58      -0.000175   0.000235  -0.027397
     59       0.000202  -0.000381   0.049628
     60      -0.002028   0.002147  -0.416301
     61       0.002949  -0.003733   0.446224
     62      -0.003692   0.006832  -0.789561
     63       0.000000   0.000417   0.000536
     64       0.000202  -0.000267   0.000622
     65      -0.000040  -0.000141   0.000070
     66       0.000882  -0.001006   0.000581
     67      -0.002083   0.002129  -0.000352
     68       0.001002  -0.001127   0.000413
     69      -0.000515  -0.000539  -0.006482
     70      -0.000999  -0.000248  -0.011668
     71       0.000189   0.000061  -0.002424
     72       0.000153  -0.004865  -0.001646
     73      -0.000478   0.002498  -0.000426
     74       0.000478   0.002944  -0.000053


-----------
IR SPECTRUM
-----------

 Mode   freq       eps      Int      T**2         TX        TY        TZ
       cm**-1   L/(mol*cm) km/mol    a.u.
----------------------------------------------------------------------------
  6:     62.17   0.004571   23.10  0.022945  ( 0.073958  0.099559  0.086968)
  7:     69.59   0.000680    3.43  0.003048  ( 0.003810 -0.042889 -0.034557)
  8:    101.30   0.001932    9.76  0.005953  (-0.048866  0.010387  0.058795)
  9:    132.25   0.002455   12.41  0.005794  (-0.034096  0.020300  0.064956)
 10:    150.72   0.004180   21.13  0.008656  (-0.066521 -0.039869 -0.051392)
 11:    156.16   0.002754   13.92  0.005503  (-0.008027  0.058248  0.045234)
 12:    202.00   0.006378   32.23  0.009853  (-0.062072  0.033289  0.069943)
 13:    219.99   0.003271   16.53  0.004641  ( 0.000476 -0.063853 -0.023735)
 14:    272.24   0.006560   33.15  0.007519  ( 0.070285 -0.025271  0.044052)
 15:    285.44   0.003717   18.78  0.004064  ( 0.001102  0.061415 -0.017046)
 16:    293.53   0.001822    9.21  0.001937  (-0.000514  0.010758 -0.042675)
 17:    316.27   0.001802    9.11  0.001778  ( 0.031863 -0.011699  0.025012)
 18:    369.90   0.001526    7.71  0.001287  ( 0.011700 -0.013732 -0.031011)
 19:    403.04   0.006321   31.94  0.004894  (-0.043294  0.049314  0.024249)
 20:    430.41   0.003215   16.25  0.002331  ( 0.020222 -0.038933 -0.020157)
 21:    485.80   0.011526   58.25  0.007404  ( 0.083799  0.013001  0.014582)
 22:    522.74   0.007242   36.60  0.004323  ( 0.035996 -0.031131 -0.045367)
 23:    553.14   0.022030  111.33  0.012429  (-0.053906 -0.088652 -0.040786)
 24:    589.16   0.009279   46.89  0.004915  ( 0.048628  0.005548  0.050195)
 25:    620.78   0.011678   59.01  0.005870  ( 0.045300  0.051296  0.034453)
 26:    635.09   0.012102   61.16  0.005947  ( 0.067463  0.035301 -0.012222)
 27:    675.70   0.009831   49.68  0.004540  ( 0.041029  0.014380  0.051481)
 28:    720.86   0.000661    3.34  0.000286  ( 0.008545 -0.014511  0.001561)
 29:    755.95   0.001722    8.70  0.000711  ( 0.023299 -0.002857  0.012648)
 30:    790.25   0.003328   16.82  0.001314  (-0.007635 -0.004939 -0.035096)
 31:    864.21   0.006432   32.51  0.002323  (-0.016812  0.014810  0.042669)
 32:    883.03   0.000518    2.62  0.000183  (-0.007162  0.007323 -0.008848)
 33:    901.24   0.003406   17.21  0.001180  ( 0.005804 -0.002718 -0.033741)
 34:    915.93   0.000286    1.44  0.000097  (-0.005608  0.004691 -0.006620)
 35:    977.75   0.001210    6.11  0.000386  ( 0.015903 -0.009161  0.007028)
 36:   1046.44   0.000826    4.18  0.000246  ( 0.002639  0.014417  0.005620)
 37:   1048.13   0.003148   15.91  0.000937  (-0.020773  0.022241 -0.003326)
 38:   1066.63   0.001322    6.68  0.000387  (-0.017163 -0.009234  0.002609)
 39:   1097.82   0.001790    9.05  0.000509  ( 0.022532 -0.000232  0.001008)
 40:   1131.07   0.004988   25.21  0.001376  ( 0.008451 -0.035990 -0.003075)
 41:   1137.35   0.009560   48.31  0.002623  ( 0.030164 -0.037203 -0.018146)
 42:   1178.79   0.000485    2.45  0.000128  ( 0.001226  0.006440  0.009240)
 43:   1251.28   0.005646   28.53  0.001408  (-0.031457 -0.017419  0.010732)
 44:   1278.20   0.013190   66.66  0.003220  ( 0.018490 -0.006982 -0.053194)
 45:   1288.55   0.000494    2.50  0.000120  (-0.003616  0.000701  0.010305)
 46:   1299.18   0.006356   32.12  0.001527  ( 0.033185 -0.020606  0.000860)
 47:   1333.67   0.030894  156.12  0.007229  ( 0.051658 -0.026986 -0.061903)
 48:   1342.09   0.007783   39.33  0.001810  ( 0.011368 -0.006818 -0.040424)
 49:   1374.20   0.015907   80.39  0.003612  ( 0.012675 -0.038445 -0.044425)
 50:   1400.28   0.004309   21.77  0.000960  (-0.000703 -0.001084  0.030961)
 51:   1424.69   0.000072    0.36  0.000016  (-0.000273 -0.001782 -0.003528)
 52:   1476.95   0.002660   13.44  0.000562  ( 0.003655  0.014722 -0.018219)
 53:   1478.09   0.000963    4.87  0.000203  (-0.013359 -0.004396 -0.002350)
 54:   1504.75   0.002593   13.10  0.000538  (-0.008499  0.020363  0.007133)
 55:   1557.00   0.010092   51.00  0.002023  (-0.015264 -0.004336  0.042081)
 56:   1561.05   0.040161  202.96  0.008028  (-0.082037  0.032497 -0.015568)
 57:   1587.26   0.049587  250.59  0.009749  ( 0.038541  0.064571  0.063985)
 58:   1632.12   0.027290  137.91  0.005218  (-0.012525 -0.071076  0.003027)
 59:   1669.64   0.033709  170.35  0.006300  (-0.043165  0.065019  0.014479)
 60:   1737.17   0.028734  145.21  0.005162  ( 0.004552  0.071244 -0.008090)
 61:   1794.66   0.038875  196.46  0.006760  ( 0.065952  0.048517 -0.007500)
 62:   1906.11   0.059230  299.33  0.009697  ( 0.036064 -0.033072  0.085456)
 63:   3117.33   0.000294    1.49  0.000029  (-0.003659 -0.001883 -0.003542)
 64:   3124.12   0.000647    3.27  0.000065  ( 0.002666 -0.006801 -0.003361)
 65:   3132.04   0.000299    1.51  0.000030  (-0.003248 -0.003986 -0.001830)
 66:   3175.64   0.000085    0.43  0.000008  (-0.000820 -0.002736 -0.000423)
 67:   3181.13   0.000389    1.97  0.000038  ( 0.005061 -0.003529  0.000358)
 68:   3202.50   0.000099    0.50  0.000010  (-0.002819  0.001295 -0.000081)
 69:   3246.36   0.060761  307.06  0.005841  ( 0.049074 -0.045098 -0.037399)
 70:   3360.38   0.031181  157.58  0.002896  (-0.031040 -0.039885 -0.018477)
 71:   3540.08   0.028462  143.83  0.002509  (-0.020392  0.044744 -0.009541)
 72:   3665.05   0.012302   62.17  0.001048  (-0.023444 -0.022312  0.000245)
 73:   3673.08   0.016384   82.80  0.001392  ( 0.005324 -0.034826  0.012279)
 74:   3795.11   0.022900  115.73  0.001883  (-0.015222  0.002653 -0.040549)

* The epsilon (eps) is given for a Dirac delta lineshape.
** The dipole moment derivative (T) already includes vibrational overlap.

The first frequency considered to be a vibration is 6
The total number of vibrations considered is 69


--------------------------
THERMOCHEMISTRY AT 298.15K
--------------------------

Temperature         ... 298.15 K
Pressure            ... 1.00 atm
Total Mass          ... 190.18 AMU

Throughout the following assumptions are being made:
  (1) The electronic state is orbitally nondegenerate
  (2) There are no thermally accessible electronically excited states
  (3) Hindered rotations indicated by low frequency modes are not
      treated as such but are treated as vibrations and this may
      cause some error
  (4) All equations used are the standard statistical mechanics
      equations for an ideal gas
  (5) All vibrations are strictly harmonic

freq.      62.17  E(vib)   ...       0.51 
freq.      69.59  E(vib)   ...       0.50 
freq.     101.30  E(vib)   ...       0.46 
freq.     132.25  E(vib)   ...       0.42 
freq.     150.72  E(vib)   ...       0.40 
freq.     156.16  E(vib)   ...       0.40 
freq.     202.00  E(vib)   ...       0.35 
freq.     219.99  E(vib)   ...       0.33 
freq.     272.24  E(vib)   ...       0.29 
freq.     285.44  E(vib)   ...       0.28 
freq.     293.53  E(vib)   ...       0.27 
freq.     316.27  E(vib)   ...       0.25 
freq.     369.90  E(vib)   ...       0.21 
freq.     403.04  E(vib)   ...       0.19 
freq.     430.41  E(vib)   ...       0.18 
freq.     485.80  E(vib)   ...       0.15 
freq.     522.74  E(vib)   ...       0.13 
freq.     553.14  E(vib)   ...       0.12 
freq.     589.16  E(vib)   ...       0.10 
freq.     620.78  E(vib)   ...       0.09 
freq.     635.09  E(vib)   ...       0.09 
freq.     675.70  E(vib)   ...       0.08 
freq.     720.86  E(vib)   ...       0.07 
freq.     755.95  E(vib)   ...       0.06 
freq.     790.25  E(vib)   ...       0.05 
freq.     864.21  E(vib)   ...       0.04 
freq.     883.03  E(vib)   ...       0.04 
freq.     901.24  E(vib)   ...       0.03 
freq.     915.93  E(vib)   ...       0.03 
freq.     977.75  E(vib)   ...       0.03 
freq.    1046.44  E(vib)   ...       0.02 
freq.    1048.13  E(vib)   ...       0.02 
freq.    1066.63  E(vib)   ...       0.02 
freq.    1097.82  E(vib)   ...       0.02 
freq.    1131.07  E(vib)   ...       0.01 
freq.    1137.35  E(vib)   ...       0.01 
freq.    1178.79  E(vib)   ...       0.01 
freq.    1251.28  E(vib)   ...       0.01 
freq.    1278.20  E(vib)   ...       0.01 
freq.    1288.55  E(vib)   ...       0.01 
freq.    1299.18  E(vib)   ...       0.01 
freq.    1333.67  E(vib)   ...       0.01 
freq.    1342.09  E(vib)   ...       0.01 
freq.    1374.20  E(vib)   ...       0.01 
freq.    1400.28  E(vib)   ...       0.00 
freq.    1424.69  E(vib)   ...       0.00 
freq.    1476.95  E(vib)   ...       0.00 
freq.    1478.09  E(vib)   ...       0.00 
freq.    1504.75  E(vib)   ...       0.00 
freq.    1557.00  E(vib)   ...       0.00 
freq.    1561.05  E(vib)   ...       0.00 
freq.    1587.26  E(vib)   ...       0.00 
freq.    1632.12  E(vib)   ...       0.00 
freq.    1669.64  E(vib)   ...       0.00 
freq.    1737.17  E(vib)   ...       0.00 
freq.    1794.66  E(vib)   ...       0.00 
freq.    1906.11  E(vib)   ...       0.00 
freq.    3117.33  E(vib)   ...       0.00 
freq.    3124.12  E(vib)   ...       0.00 
freq.    3132.04  E(vib)   ...       0.00 
freq.    3175.64  E(vib)   ...       0.00 
freq.    3181.13  E(vib)   ...       0.00 
freq.    3202.50  E(vib)   ...       0.00 
freq.    3246.36  E(vib)   ...       0.00 
freq.    3360.38  E(vib)   ...       0.00 
freq.    3540.08  E(vib)   ...       0.00 
freq.    3665.05  E(vib)   ...       0.00 
freq.    3673.08  E(vib)   ...       0.00 
freq.    3795.11  E(vib)   ...       0.00 

------------
INNER ENERGY
------------

The inner energy is: U= E(el) + E(ZPE) + E(vib) + E(rot) + E(trans)
    E(el)   - is the total energy from the electronic structure calculation
              = E(kin-el) + E(nuc-el) + E(el-el) + E(nuc-nuc)
    E(ZPE)  - the the zero temperature vibrational energy from the frequency calculation
    E(vib)  - the the finite temperature correction to E(ZPE) due to population
              of excited vibrational states
    E(rot)  - is the rotational thermal energy
    E(trans)- is the translational thermal energy

Summary of contributions to the inner energy U:
Electronic energy                ...   -701.33982220 Eh
Zero point energy                ...      0.20998474 Eh     131.77 kcal/mol
Thermal vibrational correction   ...      0.01007914 Eh       6.32 kcal/mol
Thermal rotational correction    ...      0.00141627 Eh       0.89 kcal/mol
Thermal translational correction ...      0.00141627 Eh       0.89 kcal/mol
-----------------------------------------------------------------------
Total thermal energy                   -701.11692578 Eh


Summary of corrections to the electronic energy:
(perhaps to be used in another calculation)
Total thermal correction                  0.01291169 Eh       8.10 kcal/mol
Non-thermal (ZPE) correction              0.20998474 Eh     131.77 kcal/mol
-----------------------------------------------------------------------
Total correction                          0.22289642 Eh     139.87 kcal/mol


--------
ENTHALPY
--------

The enthalpy is H = U + kB*T
                kB is Boltzmann's constant
Total free energy                 ...   -701.11692578 Eh 
Thermal Enthalpy correction       ...      0.00094421 Eh       0.59 kcal/mol
-----------------------------------------------------------------------
Total Enthalpy                    ...   -701.11598157 Eh


Note: Only C1 symmetry has been detected, increase convergence thresholds 
      if your molecule has a higher symmetry. Symmetry factor of 1.0 is   
      used for the rotational entropy correction. 
 

Note: Rotational entropy computed according to Herzberg 
Infrared and Raman Spectra, Chapter V,1, Van Nostrand Reinhold, 1945 
Point Group:  C1, Symmetry Number:   1  
Rotational constants in cm-1:     0.039789     0.023740     0.018393 

Vibrational entropy computed according to the QRRHO of S. Grimme
Chem.Eur.J. 2012 18 9955


-------
ENTROPY
-------

The entropy contributions are T*S = T*(S(el)+S(vib)+S(rot)+S(trans))
     S(el)   - electronic entropy
     S(vib)  - vibrational entropy
     S(rot)  - rotational entropy
     S(trans)- translational entropy
The entropies will be listed as multiplied by the temperature to get
units of energy

Electronic entropy                ...      0.00000000 Eh      0.00 kcal/mol
Vibrational entropy               ...      0.01735295 Eh     10.89 kcal/mol
Rotational entropy                ...      0.01468517 Eh      9.22 kcal/mol
Translational entropy             ...      0.01978162 Eh     12.41 kcal/mol
-----------------------------------------------------------------------
Final entropy term                ...      0.05181974 Eh     32.52 kcal/mol

In case the symmetry of your molecule has not been determined correctly
or in case you have a reason to use a different symmetry number we print 
out the resulting rotational entropy values for sn=1,12 :
 --------------------------------------------------------
|  sn= 1 | S(rot)=       0.01468517 Eh      9.22 kcal/mol|
|  sn= 2 | S(rot)=       0.01403071 Eh      8.80 kcal/mol|
|  sn= 3 | S(rot)=       0.01364788 Eh      8.56 kcal/mol|
|  sn= 4 | S(rot)=       0.01337626 Eh      8.39 kcal/mol|
|  sn= 5 | S(rot)=       0.01316557 Eh      8.26 kcal/mol|
|  sn= 6 | S(rot)=       0.01299343 Eh      8.15 kcal/mol|
|  sn= 7 | S(rot)=       0.01284788 Eh      8.06 kcal/mol|
|  sn= 8 | S(rot)=       0.01272180 Eh      7.98 kcal/mol|
|  sn= 9 | S(rot)=       0.01261059 Eh      7.91 kcal/mol|
|  sn=10 | S(rot)=       0.01251111 Eh      7.85 kcal/mol|
|  sn=11 | S(rot)=       0.01242112 Eh      7.79 kcal/mol|
|  sn=12 | S(rot)=       0.01233897 Eh      7.74 kcal/mol|
 --------------------------------------------------------


-------------------
GIBBS FREE ENERGY
-------------------

The Gibbs free energy is G = H - T*S

Total enthalpy                    ...   -701.11598157 Eh 
Total entropy correction          ...     -0.05181974 Eh    -32.52 kcal/mol
-----------------------------------------------------------------------
Final Gibbs free energy         ...   -701.16780131 Eh

For completeness - the Gibbs free energy minus the electronic energy
G-E(el)                           ...      0.17202089 Eh    107.94 kcal/mol


Timings for individual modules:

Sum of individual times         ...     7044.921 sec (= 117.415 min)
GTO integral calculation        ...       25.225 sec (=   0.420 min)   0.4 %
SCF iterations                  ...     2260.269 sec (=  37.671 min)  32.1 %
SCF Gradient evaluation         ...      454.499 sec (=   7.575 min)   6.5 %
Geometry relaxation             ...        1.173 sec (=   0.020 min)   0.0 %
Analytical frequency calculation...     3798.552 sec (=  63.309 min)  53.9 %
CHELPG charge generation        ...      505.202 sec (=   8.420 min)   7.2 %
                             ****ORCA TERMINATED NORMALLY****
TOTAL RUN TIME: 0 days 1 hours 57 minutes 49 seconds 354 msec
