
Lmod is automatically replacing "intel/2020.1.217" with "gcc/10.3.0".


Due to MODULEPATH changes, the following have been reloaded:
  1) blis/0.8.1     2) flexiblas/3.0.4

The following have been reloaded with a version change:
  1) gcccore/.9.3.0 => gcccore/.10.3.0        3) openmpi/4.0.3 => openmpi/4.1.1
  2) libfabric/1.10.1 => libfabric/1.12.1     4) ucx/1.8.0 => ucx/1.9.0

To execute ORCA, run: 
   ${EBROOTORCA}/orca orca.inp > orca.out

                                 *****************
                                 * O   R   C   A *
                                 *****************

                                            #,                                       
                                            ###                                      
                                            ####                                     
                                            #####                                    
                                            ######                                   
                                           ########,                                 
                                     ,,################,,,,,                         
                               ,,#################################,,                 
                          ,,##########################################,,             
                       ,#########################################, ''#####,          
                    ,#############################################,,   '####,        
                  ,##################################################,,,,####,       
                ,###########''''           ''''###############################       
              ,#####''   ,,,,##########,,,,          '''####'''          '####       
            ,##' ,,,,###########################,,,                        '##       
           ' ,,###''''                  '''############,,,                           
         ,,##''                                '''############,,,,        ,,,,,,###''
      ,#''                                            '''#######################'''  
     '                                                          ''''####''''         
             ,#######,   #######,   ,#######,      ##                                
            ,#'     '#,  ##    ##  ,#'     '#,    #''#        ######   ,####,        
            ##       ##  ##   ,#'  ##            #'  '#       #        #'  '#        
            ##       ##  #######   ##           ,######,      #####,   #    #        
            '#,     ,#'  ##    ##  '#,     ,#' ,#      #,         ##   #,  ,#        
             '#######'   ##     ##  '#######'  #'      '#     #####' # '####'        



                  #######################################################
                  #                        -***-                        #
                  #          Department of theory and spectroscopy      #
                  #    Directorship and core code : Frank Neese         #
                  #        Max Planck Institute fuer Kohlenforschung    #
                  #                Kaiser Wilhelm Platz 1               #
                  #                 D-45470 Muelheim/Ruhr               #
                  #                      Germany                        #
                  #                                                     #
                  #                  All rights reserved                #
                  #                        -***-                        #
                  #######################################################


                         Program Version 5.0.2 -  RELEASE  -


 With contributions from (in alphabetic order):
   Daniel Aravena         : Magnetic Suceptibility
   Michael Atanasov       : Ab Initio Ligand Field Theory (pilot matlab implementation)
   Alexander A. Auer      : GIAO ZORA, VPT2 properties, NMR spectrum
   Ute Becker             : Parallelization
   Giovanni Bistoni       : ED, misc. LED, open-shell LED, HFLD
   Martin Brehm           : Molecular dynamics
   Dmytro Bykov           : SCF Hessian
   Vijay G. Chilkuri      : MRCI spin determinant printing, contributions to CSF-ICE
   Dipayan Datta          : RHF DLPNO-CCSD density
   Achintya Kumar Dutta   : EOM-CC, STEOM-CC
   Dmitry Ganyushin       : Spin-Orbit,Spin-Spin,Magnetic field MRCI
   Miquel Garcia          : C-PCM and meta-GGA Hessian, CC/C-PCM, Gaussian charge scheme
   Yang Guo               : DLPNO-NEVPT2, F12-NEVPT2, CIM, IAO-localization
   Andreas Hansen         : Spin unrestricted coupled pair/coupled cluster methods
   Benjamin Helmich-Paris : MC-RPA, TRAH-SCF, COSX integrals
   Lee Huntington         : MR-EOM, pCC
   Robert Izsak           : Overlap fitted RIJCOSX, COSX-SCS-MP3, EOM
   Marcus Kettner         : VPT2
   Christian Kollmar      : KDIIS, OOCD, Brueckner-CCSD(T), CCSD density, CASPT2, CASPT2-K
   Simone Kossmann        : Meta GGA functionals, TD-DFT gradient, OOMP2, MP2 Hessian
   Martin Krupicka        : Initial AUTO-CI
   Lucas Lang             : DCDCAS
   Marvin Lechner         : AUTO-CI (C++ implementation), FIC-MRCC
   Dagmar Lenk            : GEPOL surface, SMD
   Dimitrios Liakos       : Extrapolation schemes; Compound Job, initial MDCI parallelization
   Dimitrios Manganas     : Further ROCIS development; embedding schemes
   Dimitrios Pantazis     : SARC Basis sets
   Anastasios Papadopoulos: AUTO-CI, single reference methods and gradients
   Taras Petrenko         : DFT Hessian,TD-DFT gradient, ASA, ECA, R-Raman, ABS, FL, XAS/XES, NRVS
   Peter Pinski           : DLPNO-MP2, DLPNO-MP2 Gradient
   Christoph Reimann      : Effective Core Potentials
   Marius Retegan         : Local ZFS, SOC
   Christoph Riplinger    : Optimizer, TS searches, QM/MM, DLPNO-CCSD(T), (RO)-DLPNO pert. Triples
   Tobias Risthaus        : Range-separated hybrids, TD-DFT gradient, RPA, STAB
   Michael Roemelt        : Original ROCIS implementation
   Masaaki Saitow         : Open-shell DLPNO-CCSD energy and density
   Barbara Sandhoefer     : DKH picture change effects
   Avijit Sen             : IP-ROCIS
   Kantharuban Sivalingam : CASSCF convergence, NEVPT2, FIC-MRCI
   Bernardo de Souza      : ESD, SOC TD-DFT
   Georgi Stoychev        : AutoAux, RI-MP2 NMR, DLPNO-MP2 response
   Willem Van den Heuvel  : Paramagnetic NMR
   Boris Wezisla          : Elementary symmetry handling
   Frank Wennmohs         : Technical directorship


 We gratefully acknowledge several colleagues who have allowed us to
 interface, adapt or use parts of their codes:
   Stefan Grimme, W. Hujo, H. Kruse, P. Pracht,  : VdW corrections, initial TS optimization,
                  C. Bannwarth, S. Ehlert          DFT functionals, gCP, sTDA/sTD-DF
   Ed Valeev, F. Pavosevic, A. Kumar             : LibInt (2-el integral package), F12 methods
   Garnet Chan, S. Sharma, J. Yang, R. Olivares  : DMRG
   Ulf Ekstrom                                   : XCFun DFT Library
   Mihaly Kallay                                 : mrcc  (arbitrary order and MRCC methods)
   Jiri Pittner, Ondrej Demel                    : Mk-CCSD
   Frank Weinhold                                : gennbo (NPA and NBO analysis)
   Christopher J. Cramer and Donald G. Truhlar   : smd solvation model
   Lars Goerigk                                  : TD-DFT with DH, B97 family of functionals
   V. Asgeirsson, H. Jonsson                     : NEB implementation
   FAccTs GmbH                                   : IRC, NEB, NEB-TS, DLPNO-Multilevel, CI-OPT
                                                   MM, QMMM, 2- and 3-layer-ONIOM, Crystal-QMMM,
                                                   LR-CPCM, SF, NACMEs, symmetry and pop. for TD-DFT,
                                                   nearIR, NL-DFT gradient (VV10), updates on ESD,
                                                   ML-optimized integration grids
   S Lehtola, MJT Oliveira, MAL Marques          : LibXC Library
   Liviu Ungur et al                             : ANISO software


 Your calculation uses the libint2 library for the computation of 2-el integrals
 For citations please refer to: http://libint.valeyev.net

 Your ORCA version has been built with support for libXC version: 5.1.0
 For citations please refer to: https://tddft.org/programs/libxc/

 This ORCA versions uses:
   CBLAS   interface :  Fast vector & matrix operations
   LAPACKE interface :  Fast linear algebra routines
   SCALAPACK package :  Parallel linear algebra routines
   Shared memory     :  Shared parallel matrices
   BLAS/LAPACK       :  OpenBLAS 0.3.15  USE64BITINT DYNAMIC_ARCH NO_AFFINITY Zen SINGLE_THREADED
        Core in use  :  Zen
   Copyright (c) 2011-2014, The OpenBLAS Project


Your calculation utilizes the atom-pairwise dispersion correction
with the Becke-Johnson damping scheme (D3BJ)
Cite in your paper:
S.Grimme, S.Ehrlich, L.Goerigk, J Comput Chem, (2011), 32, 1456–1465 
S.Grimme, J.Antony, S.Ehrlich and H.Krieg, J.Chem.Phys., 132, (2010), 154104 
   

================================================================================

----- Orbital basis set information -----
Your calculation utilizes the basis: def2-TZVPP
   F. Weigend and R. Ahlrichs, Phys. Chem. Chem. Phys. 7, 3297 (2005).

----- AuxJ basis set information -----
Your calculation utilizes the auxiliary basis: def2/J
   F. Weigend, Phys. Chem. Chem. Phys. 8, 1057 (2006).

================================================================================
                                        WARNINGS
                       Please study these warnings very carefully!
================================================================================


WARNING: Geometry Optimization
  ===> : Switching off AutoStart
         For restart on a previous wavefunction, please use MOREAD

INFO   : the flag for use of the SHARK integral package has been found!

================================================================================
                                       INPUT FILE
================================================================================
NAME = GGG-H_tt_011_OptFreq.inp
|  1> # GGG-H_tt_011 (old 054)
|  2> ! wB97X-D3BJ Opt Freq def2-TZVPP def2/J RIJCOSX VeryTightSCF
|  3> ! PAL8 defgrid3 VeryTightOpt
|  4> 
|  5> %maxcore 4096
|  6> 
|  7> %geom
|  8>   MaxIter 300
|  9>   # MaxStep 0.1
| 10>   Calc_Hess true
| 11>   Recalc_Hess 10
| 12> end
| 13> 
| 14> %chelpg
| 15>   grid 0.1
| 16>   rmax 3.0
| 17> end
| 18> 
| 19> * xyz 1 1 
| 20>  N   +0.471586   +1.862513   +2.347315
| 21>  H   +1.205372   +2.104324   +1.678113
| 22>  C   +0.813966   +1.693883   +3.735994
| 23>  C   +1.775976   +0.533544   +3.966938
| 24>  H   -0.119759   +1.478691   +4.287340
| 25>  H   +1.254087   +2.606564   +4.175417
| 26>  O   +2.179395   -0.236395   +3.094758
| 27>  C   -0.712736   +1.355154   +1.860073
| 28>  C   -0.745055   +1.229687   +0.322710
| 29>  O   -1.613030   +0.930729   +2.568856
| 30>  N   +0.000000   +0.000000   +0.000000
| 31>  H   -0.260873   +2.074965   -0.189474
| 32>  H   -1.783748   +1.122823   -0.014758
| 33>  H   -0.494575   -0.884235   +0.124388
| 34>  C   +1.343447   +0.000000   +0.000000
| 35>  C   +2.067656   -1.358094   +0.059521
| 36>  O   +2.051007   +1.019310   +0.000000
| 37>  H   +2.320539   -1.721554   -0.949783
| 38>  H   +1.514120   -2.132676   +0.609740
| 39>  O   +2.135365   +0.440883   +5.243407
| 40>  H   +2.737009   -0.326225   +5.358033
| 41>  N   +3.331183   -1.027617   +0.791741
| 42>  H   +4.090524   -1.710129   +0.667218
| 43>  H   +3.590379   -0.076868   +0.429232
| 44>  H   +3.098768   -0.874117   +1.810113
| 45> *
| 46> 
| 47>                          ****END OF INPUT****
================================================================================

                       *****************************
                       * Geometry Optimization Run *
                       *****************************

Geometry optimization settings:
Update method            Update   .... BFGS
Choice of coordinates    CoordSys .... Z-matrix Internals
Initial Hessian          InHess   .... Almoef's Model

Convergence Tolerances:
Energy Change            TolE     ....  2.0000e-07 Eh
Max. Gradient            TolMAXG  ....  3.0000e-05 Eh/bohr
RMS Gradient             TolRMSG  ....  8.0000e-06 Eh/bohr
Max. Displacement        TolMAXD  ....  2.0000e-04 bohr
RMS Displacement         TolRMSD  ....  1.0000e-04 bohr
Strict Convergence                ....  False
------------------------------------------------------------------------------
                        ORCA OPTIMIZATION COORDINATE SETUP
------------------------------------------------------------------------------

The optimization will be done in new redundant internal coordinates
Making redundant internal coordinates   ...  (new redundants) done
Evaluating the initial hessian          ...  (Is done on the fly) done
Evaluating the coordinates              ...  done
Calculating the B-matrix                .... done
Calculating the G-matrix                .... done
Diagonalizing the G-matrix              .... done
Small eigenvalue found = 8.148e-03
Small eigenvalue found = 1.672e-02
The first mode is                       ....   45
The number of degrees of freedom        ....   69

    -----------------------------------------------------------------
                    Redundant Internal Coordinates


    -----------------------------------------------------------------
         Definition                    Initial Value    d2E/dq (diagonal element)
    -----------------------------------------------------------------
      1. B(H   1,N   0)                  1.0221         0.000000   
      2. B(C   2,N   0)                  1.4402         0.000000   
      3. B(C   3,C   2)                  1.5249         0.000000   
      4. B(H   4,C   2)                  1.1055         0.000000   
      5. B(H   5,C   2)                  1.1044         0.000000   
      6. B(O   6,C   3)                  1.2314         0.000000   
      7. B(C   7,N   0)                  1.3775         0.000000   
      8. B(C   8,C   7)                  1.5428         0.000000   
      9. B(O   9,C   7)                  1.2219         0.000000   
     10. B(N  10,C   8)                  1.4736         0.000000   
     11. B(H  11,C   8)                  1.1006         0.000000   
     12. B(H  12,C   8)                  1.0974         0.000000   
     13. B(H  13,N  10)                  1.0208         0.000000   
     14. B(C  14,N  10)                  1.3434         0.000000   
     15. B(C  15,C  14)                  1.5403         0.000000   
     16. B(O  16,C  14)                  1.2408         0.000000   
     17. B(H  17,C  15)                  1.1022         0.000000   
     18. B(H  18,C  15)                  1.0996         0.000000   
     19. B(O  19,C   3)                  1.3293         0.000000   
     20. B(H  20,O  19)                  0.9816         0.000000   
     21. B(N  21,C  15)                  1.4973         0.000000   
     22. B(H  22,N  21)                  1.0286         0.000000   
     23. B(H  23,N  21)                  1.0500         0.000000   
     24. B(H  24,H  20)                  3.6082         0.000000   
     25. B(H  24,N  21)                  1.0558         0.000000   
     26. A(H   1,N   0,C   2)          119.2313         0.000000   
     27. A(C   2,N   0,C   7)          120.1554         0.000000   
     28. A(H   1,N   0,C   7)          118.2152         0.000000   
     29. A(C   3,C   2,H   5)          108.4914         0.000000   
     30. A(C   3,C   2,H   4)          108.0110         0.000000   
     31. A(N   0,C   2,H   4)          107.6316         0.000000   
     32. A(N   0,C   2,C   3)          112.6513         0.000000   
     33. A(N   0,C   2,H   5)          112.4342         0.000000   
     34. A(H   4,C   2,H   5)          107.3982         0.000000   
     35. A(O   6,C   3,O  19)          123.2286         0.000000   
     36. A(C   2,C   3,O  19)          111.6561         0.000000   
     37. A(C   2,C   3,O   6)          125.1150         0.000000   
     38. A(C   8,C   7,O   9)          122.2988         0.000000   
     39. A(N   0,C   7,O   9)          123.7961         0.000000   
     40. A(N   0,C   7,C   8)          113.6054         0.000000   
     41. A(C   7,C   8,H  11)          113.0828         0.000000   
     42. A(C   7,C   8,N  10)          105.9918         0.000000   
     43. A(H  11,C   8,H  12)          110.3708         0.000000   
     44. A(N  10,C   8,H  12)          109.2670         0.000000   
     45. A(C   7,C   8,H  12)          109.5233         0.000000   
     46. A(N  10,C   8,H  11)          108.4555         0.000000   
     47. A(H  13,N  10,C  14)          118.9808         0.000000   
     48. A(C   8,N  10,C  14)          120.3722         0.000000   
     49. A(C   8,N  10,H  13)          116.8221         0.000000   
     50. A(C  15,C  14,O  16)          117.1424         0.000000   
     51. A(N  10,C  14,O  16)          124.7667         0.000000   
     52. A(N  10,C  14,C  15)          118.0461         0.000000   
     53. A(H  17,C  15,H  18)          109.9640         0.000000   
     54. A(C  14,C  15,H  18)          113.8130         0.000000   
     55. A(C  14,C  15,H  17)          111.3006         0.000000   
     56. A(H  18,C  15,N  21)          109.6080         0.000000   
     57. A(H  17,C  15,N  21)          109.0866         0.000000   
     58. A(C  14,C  15,N  21)          102.7715         0.000000   
     59. A(C   3,O  19,H  20)          109.4087         0.000000   
     60. A(H  23,N  21,H  24)          104.8155         0.000000   
     61. A(H  22,N  21,H  24)          112.0720         0.000000   
     62. A(C  15,N  21,H  24)          108.5437         0.000000   
     63. A(H  22,N  21,H  23)          112.1355         0.000000   
     64. A(C  15,N  21,H  23)          103.8470         0.000000   
     65. A(C  15,N  21,H  22)          114.6665         0.000000   
     66. D(H   4,C   2,N   0,C   7)    -20.1468         0.000000   
     67. D(H   5,C   2,N   0,C   7)   -138.2239         0.000000   
     68. D(H   5,C   2,N   0,H   1)     59.6592         0.000000   
     69. D(H   4,C   2,N   0,H   1)    177.7362         0.000000   
     70. D(C   3,C   2,N   0,H   1)    -63.3044         0.000000   
     71. D(C   3,C   2,N   0,C   7)     98.8126         0.000000   
     72. D(O   6,C   3,C   2,H   4)    115.1329         0.000000   
     73. D(O  19,C   3,C   2,H   5)     51.4566         0.000000   
     74. D(O  19,C   3,C   2,H   4)    -64.6644         0.000000   
     75. D(O   6,C   3,C   2,H   5)   -128.7461         0.000000   
     76. D(O  19,C   3,C   2,N   0)    176.5977         0.000000   
     77. D(O   6,C   3,C   2,N   0)     -3.6050         0.000000   
     78. D(O   9,C   7,N   0,H   1)    173.7445         0.000000   
     79. D(C   8,C   7,N   0,C   2)   -162.3793         0.000000   
     80. D(C   8,C   7,N   0,H   1)     -0.0836         0.000000   
     81. D(O   9,C   7,N   0,C   2)     11.4489         0.000000   
     82. D(H  12,C   8,C   7,O   9)     23.3514         0.000000   
     83. D(H  12,C   8,C   7,N   0)   -162.7160         0.000000   
     84. D(H  11,C   8,C   7,O   9)    146.8959         0.000000   
     85. D(N  10,C   8,C   7,O   9)    -94.4114         0.000000   
     86. D(N  10,C   8,C   7,N   0)     79.5212         0.000000   
     87. D(H  11,C   8,C   7,N   0)    -39.1715         0.000000   
     88. D(C  14,N  10,C   8,H  12)    163.2068         0.000000   
     89. D(C  14,N  10,C   8,H  11)     42.8490         0.000000   
     90. D(C  14,N  10,C   8,C   7)    -78.8597         0.000000   
     91. D(H  13,N  10,C   8,H  12)    -39.0324         0.000000   
     92. D(H  13,N  10,C   8,H  11)   -159.3901         0.000000   
     93. D(H  13,N  10,C   8,C   7)     78.9012         0.000000   
     94. D(O  16,C  14,N  10,C   8)    -14.7047         0.000000   
     95. D(C  15,C  14,N  10,H  13)      5.4979         0.000000   
     96. D(C  15,C  14,N  10,C   8)    162.7858         0.000000   
     97. D(O  16,C  14,N  10,H  13)   -171.9926         0.000000   
     98. D(N  21,C  15,C  14,O  16)     28.4050         0.000000   
     99. D(N  21,C  15,C  14,N  10)   -149.2785         0.000000   
    100. D(H  18,C  15,C  14,O  16)    146.8393         0.000000   
    101. D(H  18,C  15,C  14,N  10)    -30.8442         0.000000   
    102. D(H  17,C  15,C  14,O  16)    -88.2267         0.000000   
    103. D(H  17,C  15,C  14,N  10)     94.0898         0.000000   
    104. D(H  20,O  19,C   3,O   6)     -1.0390         0.000000   
    105. D(H  20,O  19,C   3,C   2)    178.7628         0.000000   
    106. D(H  24,N  21,C  15,H  18)    -47.9848         0.000000   
    107. D(H  24,N  21,C  15,H  17)   -168.4355         0.000000   
    108. D(H  24,N  21,C  15,C  14)     73.3629         0.000000   
    109. D(H  23,N  21,C  15,H  18)   -159.1137         0.000000   
    110. D(H  23,N  21,C  15,H  17)     80.4355         0.000000   
    111. D(H  23,N  21,C  15,C  14)    -37.7661         0.000000   
    112. D(H  22,N  21,C  15,H  18)     78.1862         0.000000   
    113. D(H  22,N  21,C  15,H  17)    -42.2646         0.000000   
    114. D(H  22,N  21,C  15,C  14)   -160.4662         0.000000   
    -----------------------------------------------------------------

Number of atoms                         .... 25
Number of degrees of freedom            .... 114

         *************************************************************
         *                GEOMETRY OPTIMIZATION CYCLE   1            *
         *************************************************************
---------------------------------
CARTESIAN COORDINATES (ANGSTROEM)
---------------------------------
  N      0.471586    1.862513    2.347315
  H      1.205372    2.104324    1.678113
  C      0.813966    1.693883    3.735994
  C      1.775976    0.533544    3.966938
  H     -0.119759    1.478691    4.287340
  H      1.254087    2.606564    4.175417
  O      2.179395   -0.236395    3.094758
  C     -0.712736    1.355154    1.860073
  C     -0.745055    1.229687    0.322710
  O     -1.613030    0.930729    2.568856
  N      0.000000    0.000000    0.000000
  H     -0.260873    2.074965   -0.189474
  H     -1.783748    1.122823   -0.014758
  H     -0.494575   -0.884235    0.124388
  C      1.343447    0.000000    0.000000
  C      2.067656   -1.358094    0.059521
  O      2.051007    1.019310    0.000000
  H      2.320539   -1.721554   -0.949783
  H      1.514120   -2.132676    0.609740
  O      2.135365    0.440883    5.243407
  H      2.737009   -0.326225    5.358033
  N      3.331183   -1.027617    0.791741
  H      4.090524   -1.710129    0.667218
  H      3.590379   -0.076868    0.429232
  H      3.098768   -0.874117    1.810113

----------------------------
CARTESIAN COORDINATES (A.U.)
----------------------------
  NO LB      ZA    FRAG     MASS         X           Y           Z
   0 N     7.0000    0    14.007    0.891168    3.519639    4.435783
   1 H     1.0000    0     1.008    2.277823    3.976596    3.171174
   2 C     6.0000    0    12.011    1.538173    3.200975    7.060005
   3 C     6.0000    0    12.011    3.356108    1.008252    7.496426
   4 H     1.0000    0     1.008   -0.226312    2.794321    8.101898
   5 H     1.0000    0     1.008    2.369881    4.925692    7.890395
   6 O     8.0000    0    15.999    4.118460   -0.446722    5.848245
   7 C     6.0000    0    12.011   -1.346876    2.560870    3.515029
   8 C     6.0000    0    12.011   -1.407950    2.323772    0.609834
   9 O     8.0000    0    15.999   -3.048185    1.758823    4.854434
  10 N     7.0000    0    14.007    0.000000    0.000000    0.000000
  11 H     1.0000    0     1.008   -0.492979    3.921116   -0.358054
  12 H     1.0000    0     1.008   -3.370795    2.121828   -0.027889
  13 H     1.0000    0     1.008   -0.934611   -1.670962    0.235059
  14 C     6.0000    0    12.011    2.538747    0.000000    0.000000
  15 C     6.0000    0    12.011    3.907304   -2.566426    0.112478
  16 O     8.0000    0    15.999    3.875842    1.926217    0.000000
  17 H     1.0000    0     1.008    4.385183   -3.253266   -1.794830
  18 H     1.0000    0     1.008    2.861272   -4.030174    1.152242
  19 O     8.0000    0    15.999    4.035255    0.833148    9.908603
  20 H     1.0000    0     1.008    5.172197   -0.616476   10.125215
  21 N     7.0000    0    14.007    6.295024   -1.941915    1.496174
  22 H     1.0000    0     1.008    7.729970   -3.231675    1.260859
  23 H     1.0000    0     1.008    6.784833   -0.145259    0.811131
  24 H     1.0000    0     1.008    5.855823   -1.651842    3.420618

--------------------------------
INTERNAL COORDINATES (ANGSTROEM)
--------------------------------
 N      0   0   0     0.000000000000     0.00000000     0.00000000
 H      1   0   0     1.022128059649     0.00000000     0.00000000
 C      1   2   0     1.440169957450   119.23129223     0.00000000
 C      3   1   2     1.524855719784   112.65132360   296.69562336
 H      3   1   2     1.105500965266   107.63155674   177.73622185
 H      3   1   2     1.104439077238   112.43420531    59.65916692
 O      4   3   1     1.231361403359   125.11495330   356.39495721
 C      1   2   3     1.377474689832   118.21524377   197.53694751
 C      8   1   2     1.542812846595   113.60543475   359.91637987
 O      8   1   2     1.221899835563   123.79605751   173.74453534
 N      9   8   1     1.473559912285   105.99178523    79.52121286
 H      9   8   1     1.100572376659   113.08277677   320.82853101
 H      9   8   1     1.097354871393   109.52329563   197.28401067
 H     11   9   8     1.020758708214   116.82212545    78.90116187
 C     11   9   8     1.343447000000   120.37223124   281.14033035
 C     15  11   9     1.540272942682   118.04612752   162.78581868
 O     15  11   9     1.240819902202   124.76667440   345.29530706
 H     16  15  11     1.102155863617   111.30055576    94.08984107
 H     16  15  11     1.099600075473   113.81296676   329.15577926
 O      4   3   1     1.329330516539   111.65608976   176.59765299
 H     20   4   3     0.981615661181   109.40872756   178.76276507
 N     16  15  11     1.497284761045   102.77146955   210.72153328
 H     22  16  15     1.028555959564   114.66653186   199.53379051
 H     22  16  15     1.050009048770   103.84699301   322.23392555
 H     22  16  15     1.055774839920   108.54373457    73.36285608

---------------------------
INTERNAL COORDINATES (A.U.)
---------------------------
 N      0   0   0     0.000000000000     0.00000000     0.00000000
 H      1   0   0     1.931542106532     0.00000000     0.00000000
 C      1   2   0     2.721526805881   119.23129223     0.00000000
 C      3   1   2     2.881559704135   112.65132360   296.69562336
 H      3   1   2     2.089094065139   107.63155674   177.73622185
 H      3   1   2     2.087087387581   112.43420531    59.65916692
 O      4   3   1     2.326935824229   125.11495330   356.39495721
 C      1   2   3     2.603049920191   118.21524377   197.53694751
 C      8   1   2     2.915493755960   113.60543475   359.91637987
 O      8   1   2     2.309056052298   123.79605751   173.74453534
 N      9   8   1     2.784624676144   105.99178523    79.52121286
 H      9   8   1     2.079780382444   113.08277677   320.82853101
 H      9   8   1     2.073700178656   109.52329563   197.28401067
 H     11   9   8     1.928954407339   116.82212545    78.90116187
 C     11   9   8     2.538746905438   120.37223124   281.14033035
 C     15  11   9     2.910694033158   118.04612752   162.78581868
 O     15  11   9     2.344809796680   124.76667440   345.29530706
 H     16  15  11     2.082772739131   111.30055576    94.08984107
 H     16  15  11     2.077942999484   113.81296676   329.15577926
 O      4   3   1     2.512070617724   111.65608976   176.59765299
 H     20   4   3     1.854984768400   109.40872756   178.76276507
 N     16  15  11     2.829458142869   102.77146955   210.72153328
 H     22  16  15     1.943689076988   114.66653186   199.53379051
 H     22  16  15     1.984229540314   103.84699301   322.23392555
 H     22  16  15     1.995125306534   108.54373457    73.36285608

---------------------
BASIS SET INFORMATION
---------------------
There are 4 groups of distinct atoms

 Group   1 Type N   : 11s6p2d1f contracted to 5s3p2d1f pattern {62111/411/11/1}
 Group   2 Type H   : 5s2p1d contracted to 3s2p1d pattern {311/11/1}
 Group   3 Type C   : 11s6p2d1f contracted to 5s3p2d1f pattern {62111/411/11/1}
 Group   4 Type O   : 11s6p2d1f contracted to 5s3p2d1f pattern {62111/411/11/1}

Atom   0N    basis set group =>   1
Atom   1H    basis set group =>   2
Atom   2C    basis set group =>   3
Atom   3C    basis set group =>   3
Atom   4H    basis set group =>   2
Atom   5H    basis set group =>   2
Atom   6O    basis set group =>   4
Atom   7C    basis set group =>   3
Atom   8C    basis set group =>   3
Atom   9O    basis set group =>   4
Atom  10N    basis set group =>   1
Atom  11H    basis set group =>   2
Atom  12H    basis set group =>   2
Atom  13H    basis set group =>   2
Atom  14C    basis set group =>   3
Atom  15C    basis set group =>   3
Atom  16O    basis set group =>   4
Atom  17H    basis set group =>   2
Atom  18H    basis set group =>   2
Atom  19O    basis set group =>   4
Atom  20H    basis set group =>   2
Atom  21N    basis set group =>   1
Atom  22H    basis set group =>   2
Atom  23H    basis set group =>   2
Atom  24H    basis set group =>   2
---------------------------------
AUXILIARY/J BASIS SET INFORMATION
---------------------------------
There are 4 groups of distinct atoms

 Group   1 Type N   : 12s5p4d2f1g contracted to 6s4p3d1f1g pattern {711111/2111/211/2/1}
 Group   2 Type H   : 5s2p1d contracted to 3s1p1d pattern {311/2/1}
 Group   3 Type C   : 12s5p4d2f1g contracted to 6s4p3d1f1g pattern {711111/2111/211/2/1}
 Group   4 Type O   : 12s5p4d2f1g contracted to 6s4p3d1f1g pattern {711111/2111/211/2/1}

Atom   0N    basis set group =>   1
Atom   1H    basis set group =>   2
Atom   2C    basis set group =>   3
Atom   3C    basis set group =>   3
Atom   4H    basis set group =>   2
Atom   5H    basis set group =>   2
Atom   6O    basis set group =>   4
Atom   7C    basis set group =>   3
Atom   8C    basis set group =>   3
Atom   9O    basis set group =>   4
Atom  10N    basis set group =>   1
Atom  11H    basis set group =>   2
Atom  12H    basis set group =>   2
Atom  13H    basis set group =>   2
Atom  14C    basis set group =>   3
Atom  15C    basis set group =>   3
Atom  16O    basis set group =>   4
Atom  17H    basis set group =>   2
Atom  18H    basis set group =>   2
Atom  19O    basis set group =>   4
Atom  20H    basis set group =>   2
Atom  21N    basis set group =>   1
Atom  22H    basis set group =>   2
Atom  23H    basis set group =>   2
Atom  24H    basis set group =>   2


           ************************************************************
           *        Program running with 8 parallel MPI-processes     *
           *              working on a common directory               *
           ************************************************************
------------------------------------------------------------------------------
                           ORCA GTO INTEGRAL CALCULATION
                           -- RI-GTO INTEGRALS CHOSEN --
------------------------------------------------------------------------------
------------------------------------------------------------------------------
                   ___                                                        
                  /   \      - P O W E R E D   B Y -                         
                 /     \                                                     
                 |  |  |   _    _      __       _____    __    __             
                 |  |  |  | |  | |    /  \     |  _  \  |  |  /  |          
                  \  \/   | |  | |   /    \    | | | |  |  | /  /          
                 / \  \   | |__| |  /  /\  \   | |_| |  |  |/  /          
                |  |  |   |  __  | /  /__\  \  |    /   |      \           
                |  |  |   | |  | | |   __   |  |    \   |  |\   \          
                \     /   | |  | | |  |  |  |  | |\  \  |  | \   \       
                 \___/    |_|  |_| |__|  |__|  |_| \__\ |__|  \__/        
                                                                              
                      - O R C A' S   B I G   F R I E N D -                    
                                      &                                       
                       - I N T E G R A L  F E E D E R -                       
                                                                              
 v1 FN, 2020, v2 2021                                                         
------------------------------------------------------------------------------


Reading SHARK input file GGG-H_tt_011_OptFreq.SHARKINP.tmp ... ok
----------------------
SHARK INTEGRAL PACKAGE
----------------------

Number of atoms                             ...     25
Number of basis functions                   ...    571
Number of shells                            ...    215
Maximum angular momentum                    ...      3
Integral batch strategy                     ... SHARK/LIBINT Hybrid
RI-J (if used) integral strategy            ... SPLIT-RIJ (Revised 2003 algorithm where possible)
Printlevel                                  ...      1
Contraction scheme used                     ... SEGMENTED contraction
Coulomb Range Separation                    ... NOT USED
Exchange Range Separation                   ... Long Range
   Mu parameter                             ...  0.300000
   Scaling (regular/separated)              ...  0.167000  0.833000
Finite Nucleus Model                        ... NOT USED
Auxiliary Coulomb fitting basis             ... AVAILABLE
   # of basis functions in Aux-J            ...    769
   # of shells in Aux-J                     ...    255
   Maximum angular momentum in Aux-J        ...      4
Auxiliary J/K fitting basis                 ... NOT available
Auxiliary Correlation fitting basis         ... NOT available
Auxiliary 'external' fitting basis          ... NOT available
Integral threshold                          ...     1.000000e-12
Primitive cut-off                           ...     1.000000e-14
Primitive pair pre-selection threshold      ...     1.000000e-14

Calculating pre-screening integrals         ... done (  0.0 sec) Dimension = 215
Organizing shell pair data                  ... done (  0.2 sec)
Shell pair information
Total number of shell pairs                 ...     23220
Shell pairs after pre-screening             ...     19870
Total number of primitive shell pairs       ...     63868
Primitive shell pairs kept                  ...     39902
          la=0 lb=0:   4319 shell pairs
          la=1 lb=0:   5576 shell pairs
          la=1 lb=1:   1841 shell pairs
          la=2 lb=0:   3136 shell pairs
          la=2 lb=1:   2084 shell pairs
          la=2 lb=2:    596 shell pairs
          la=3 lb=0:   1087 shell pairs
          la=3 lb=1:    736 shell pairs
          la=3 lb=2:    414 shell pairs
          la=3 lb=3:     81 shell pairs

Calculating one electron integrals          ... done (  0.0 sec)
Calculating RI/J V-Matrix + Cholesky decomp.... done (  0.5 sec)
Calculating Nuclear repulsion               ... done (  0.0 sec) ENN=    883.760824023587 Eh

SHARK setup successfully completed in   1.7 seconds

Maximum memory used throughout the entire GTOINT-calculation: 31.6 MB


           ************************************************************
           *        Program running with 8 parallel MPI-processes     *
           *              working on a common directory               *
           ************************************************************
-------------------------------------------------------------------------------
                                 ORCA SCF
-------------------------------------------------------------------------------

------------
SCF SETTINGS
------------
Hamiltonian:
 Density Functional     Method          .... DFT(GTOs)
 Exchange Functional    Exchange        .... WB97X-V
 Correlation Functional Correlation     .... WB97X-V
 Gradients option       PostSCFGGA      .... off
 Hybrid DFT is turned on
   Fraction HF Exchange ScalHFX         ....  0.167000
   Scaling of DF-GGA-X  ScalDFX         ....  0.000000
   Scaling of DF-GGA-C  ScalDFC         ....  1.000000
   Scaling of DF-LDA-C  ScalLDAC        ....  1.000000
   Perturbative correction              ....  0.000000
   Density functional embedding theory  .... OFF
 Long-range corrected/Screened/Range-Separated Hybrid DFT is turned on
   Amount of maximum screened exact exchange              ....  0.833000
   Range separation parameter mu (erf(mu*r12)/r12)        ....  0.300000
 RI-approximation to the Coulomb term is turned on
   Number of AuxJ basis functions       .... 769
   RIJ-COSX (HFX calculated with COS-X)).... on


General Settings:
 Integral files         IntName         .... GGG-H_tt_011_OptFreq
 Hartree-Fock type      HFTyp           .... RHF
 Total Charge           Charge          ....    1
 Multiplicity           Mult            ....    1
 Number of Electrons    NEL             ....  100
 Basis Dimension        Dim             ....  571
 Nuclear Repulsion      ENuc            ....    883.7608240236 Eh

Convergence Acceleration:
 DIIS                   CNVDIIS         .... on
   Start iteration      DIISMaxIt       ....    12
   Startup error        DIISStart       ....  0.200000
   # of expansion vecs  DIISMaxEq       ....     5
   Bias factor          DIISBfac        ....   1.050
   Max. coefficient     DIISMaxC        ....  10.000
 Trust-Rad. Augm. Hess. CNVTRAH         .... auto
   Auto Start mean grad. ratio tolernc. ....  1.125000
   Auto Start start iteration           ....    20
   Auto Start num. interpolation iter.  ....    10
   Max. Number of Micro iterations      ....    16
   Max. Number of Macro iterations      .... Maxiter - #DIIS iter
   Number of Davidson start vectors     ....     2
   Converg. threshold I  (grad. norm)   ....   2.000e-06
   Converg. threshold II (energy diff.) ....   1.000e-09
   Grad. Scal. Fac. for Micro threshold ....   0.100
   Minimum threshold for Micro iter.    ....   0.010
   NR start threshold (gradient norm)   ....   0.001
   Initial trust radius                 ....   0.400
   Minimum AH scaling param. (alpha)    ....   1.000
   Maximum AH scaling param. (alpha)    .... 1000.000
   Orbital update algorithm             .... Taylor
   White noise on init. David. guess    .... on
   Maximum white noise                  ....   0.010
   Quad. conv. algorithm                .... NR
 SOSCF                  CNVSOSCF        .... on
   Start iteration      SOSCFMaxIt      ....   150
   Startup grad/error   SOSCFStart      ....  0.003300
 Level Shifting         CNVShift        .... on
   Level shift para.    LevelShift      ....    0.2500
   Turn off err/grad.   ShiftErr        ....    0.0010
 Zerner damping         CNVZerner       .... off
 Static damping         CNVDamp         .... on
   Fraction old density DampFac         ....    0.7000
   Max. Damping (<1)    DampMax         ....    0.9800
   Min. Damping (>=0)   DampMin         ....    0.0000
   Turn off err/grad.   DampErr         ....    0.1000
 Fernandez-Rico         CNVRico         .... off

SCF Procedure:
 Maximum # iterations   MaxIter         ....   125
 SCF integral mode      SCFMode         .... Direct
   Integral package                     .... SHARK and LIBINT hybrid scheme
 Reset frequency        DirectResetFreq ....    20
 Integral Threshold     Thresh          ....  1.000e-12 Eh
 Primitive CutOff       TCut            ....  1.000e-14 Eh

Convergence Tolerance:
 Convergence Check Mode ConvCheckMode   .... Total+1el-Energy
 Convergence forced     ConvForced      .... 0
 Energy Change          TolE            ....  1.000e-09 Eh
 1-El. energy change                    ....  1.000e-06 Eh
 Orbital Gradient       TolG            ....  2.000e-06
 Orbital Rotation angle TolX            ....  2.000e-06
 DIIS Error             TolErr          ....  1.000e-08


Diagonalization of the overlap matrix:
Smallest eigenvalue                        ... 1.435e-04
Time for diagonalization                   ...    0.045 sec
Threshold for overlap eigenvalues          ... 1.000e-08
Number of eigenvalues below threshold      ... 0
Time for construction of square roots      ...    0.370 sec
Total time needed                          ...    0.452 sec

Time for model grid setup =    0.449 sec

------------------------------
INITIAL GUESS: MODEL POTENTIAL
------------------------------
Loading Hartree-Fock densities                     ... done
Calculating cut-offs                               ... done
Initializing the effective Hamiltonian             ... done
Setting up the integral package (SHARK)            ... done
Starting the Coulomb interaction                   ... done (   0.3 sec)
Reading the grid                                   ... done
Mapping shells                                     ... done
Starting the XC term evaluation                    ... done (   0.1 sec)
  promolecular density results
     # of electrons  =    100.992541021
     EX              =    -58.974085435
     EC              =     -4.270029783
     EX+EC           =    -63.244115218
Transforming the Hamiltonian                       ... done (   0.1 sec)
Diagonalizing the Hamiltonian                      ... done (   0.1 sec)
Back transforming the eigenvectors                 ... done (   0.0 sec)
Now organizing SCF variables                       ... done
                      ------------------
                      INITIAL GUESS DONE (   1.2 sec)
                      ------------------
-------------------
DFT GRID GENERATION
-------------------

General Integration Accuracy     IntAcc      ... 4.959
Radial Grid Type                 RadialGrid  ... OptM3 with GC (2021)
Angular Grid (max. ang.)         AngularGrid ... 6 (Lebedev-590)
Angular grid pruning method      GridPruning ... 4 (adaptive)
Weight generation scheme         WeightScheme... Becke
Basis function cutoff            BFCut       ... 1.0000e-12
Integration weight cutoff        WCut        ... 1.0000e-14
Angular grids for H and He will be reduced by one unit
Partially contracted basis set               ... off
Rotationally invariant grid construction     ... off

Total number of grid points                  ...   288721
Total number of batches                      ...     4524
Average number of points per batch           ...       63
Average number of grid points per atom       ...    11549
Time for grid setup =    3.478 sec

--------------------
COSX GRID GENERATION
--------------------

GRIDX 1
-------
General Integration Accuracy     IntAcc      ... 4.020
Radial Grid Type                 RadialGrid  ... OptM3 with GC (2021)
Angular Grid (max. ang.)         AngularGrid ... 2 (Lebedev-110)
Angular grid pruning method      GridPruning ... 4 (adaptive)
Weight generation scheme         WeightScheme... Becke
Basis function cutoff            BFCut       ... 1.0000e-12
Integration weight cutoff        WCut        ... 1.0000e-14
Angular grids for H and He will be reduced by one unit
Partially contracted basis set               ... on
Rotationally invariant grid construction     ... off

Total number of grid points                  ...    32132
Total number of batches                      ...      514
Average number of points per batch           ...       62
Average number of grid points per atom       ...     1285
UseSFitting                                  ... on

GRIDX 2
-------
General Integration Accuracy     IntAcc      ... 4.338
Radial Grid Type                 RadialGrid  ... OptM3 with GC (2021)
Angular Grid (max. ang.)         AngularGrid ... 3 (Lebedev-194)
Angular grid pruning method      GridPruning ... 4 (adaptive)
Weight generation scheme         WeightScheme... Becke
Basis function cutoff            BFCut       ... 1.0000e-12
Integration weight cutoff        WCut        ... 1.0000e-14
Angular grids for H and He will be reduced by one unit
Partially contracted basis set               ... on
Rotationally invariant grid construction     ... off

Total number of grid points                  ...    70370
Total number of batches                      ...     1110
Average number of points per batch           ...       63
Average number of grid points per atom       ...     2815
UseSFitting                                  ... on

GRIDX 3
-------
General Integration Accuracy     IntAcc      ... 4.871
Radial Grid Type                 RadialGrid  ... OptM3 with GC (2021)
Angular Grid (max. ang.)         AngularGrid ... 4 (Lebedev-302)
Angular grid pruning method      GridPruning ... 4 (adaptive)
Weight generation scheme         WeightScheme... Becke
Basis function cutoff            BFCut       ... 1.0000e-12
Integration weight cutoff        WCut        ... 1.0000e-14
Angular grids for H and He will be reduced by one unit
Partially contracted basis set               ... on
Rotationally invariant grid construction     ... off

Total number of grid points                  ...   133209
Total number of batches                      ...     2093
Average number of points per batch           ...       63
Average number of grid points per atom       ...     5328
UseSFitting                                  ... on

Time for X-Grid setup             =    2.837 sec

--------------
SCF ITERATIONS
--------------
ITER       Energy         Delta-E        Max-DP      RMS-DP      [F,P]     Damp
               ***  Starting incremental Fock matrix formation  ***
  0   -701.1737438020   0.000000000000 0.06304966  0.00045906  0.3425576 0.7000
  1   -701.2189658622  -0.045222060264 0.05424548  0.00041489  0.2343549 0.7000
                               ***Turning on DIIS***
  2   -701.2459246031  -0.026958740888 0.04076363  0.00032152  0.1627273 0.7000
  3   -701.2636831202  -0.017758517055 0.03066139  0.00025469  0.1123539 0.7000
  4   -701.2761259041  -0.012442783921 0.07697476  0.00067013  0.0775166 0.0000
                      *** Initiating the SOSCF procedure ***
                           *** Shutting down DIIS ***
                      *** Re-Reading the Fockian *** 
                      *** Removing any level shift *** 
ITER      Energy       Delta-E        Grad      Rot      Max-DP    RMS-DP
  5   -701.30613392  -0.0300080154  0.001365  0.001365  0.004924  0.000069
               *** Restarting incremental Fock matrix formation ***
  6   -701.30627402  -0.0001401037  0.000762  0.001644  0.003388  0.000041
  7   -701.30631460  -0.0000405747  0.000396  0.001638  0.002473  0.000031
  8   -701.30632297  -0.0000083687  0.000183  0.000323  0.000611  0.000009
  9   -701.30632532  -0.0000023511  0.000078  0.000088  0.000379  0.000005
 10   -701.30632550  -0.0000001781  0.000030  0.000055  0.000146  0.000002
 11   -701.30632563  -0.0000001388  0.000010  0.000028  0.000020  0.000000
 12   -701.30632564  -0.0000000037  0.000003  0.000005  0.000014  0.000000
 13   -701.30632564  -0.0000000022  0.000002  0.000005  0.000004  0.000000
 14   -701.30632564  -0.0000000004  0.000002  0.000003  0.000001  0.000000
                  ***Gradient check signals convergence***
              ***Rediagonalizing the Fockian in SOSCF/NRSCF***

               *****************************************************
               *                     SUCCESS                       *
               *           SCF CONVERGED AFTER  15 CYCLES          *
               *****************************************************

Old exchange energy                            =    -27.833522055 Eh
New exchange energy                            =    -27.833519400 Eh
Exchange energy change after final integration =      0.000002654 Eh
Total energy after final integration           =   -701.306322987 Eh
Final COS-X integration done in                =    33.563 sec

----------------
TOTAL SCF ENERGY
----------------

Total Energy       :         -701.30632299 Eh          -19083.51524 eV

Components:
Nuclear Repulsion  :          883.76082402 Eh           24048.35462 eV
Electronic Energy  :        -1585.06714701 Eh          -43131.86985 eV
One Electron Energy:        -2695.85407179 Eh          -73357.91874 eV
Two Electron Energy:         1110.78692478 Eh           30226.04889 eV
Max COSX asymmetry :            0.00000068 Eh               0.00002 eV

Virial components:
Potential Energy   :        -1399.28549018 Eh          -38076.49396 eV
Kinetic Energy     :          697.97916719 Eh           18992.97872 eV
Virial Ratio       :            2.00476684


DFT components:
N(Alpha)           :       50.000003750264 electrons
N(Beta)            :       50.000003750264 electrons
N(Total)           :      100.000007500527 electrons
E(X)               :      -60.052771947812 Eh       
E(C)               :       -4.267318033815 Eh       
E(XC)              :      -64.320089981627 Eh       
DFET-embed. en.    :        0.000000000000 Eh       

---------------
SCF CONVERGENCE
---------------

  Last Energy change         ...   -3.0764e-10  Tolerance :   1.0000e-09
  Last MAX-Density change    ...    1.7764e-15  Tolerance :   1.0000e-08
  Last RMS-Density change    ...    1.3818e-17  Tolerance :   1.0000e-09
  Last Orbital Gradient      ...    2.6635e-07  Tolerance :   2.0000e-06
  Last Orbital Rotation      ...    5.3743e-07  Tolerance :   2.0000e-06

             **** THE GBW FILE WAS UPDATED (GGG-H_tt_011_OptFreq.gbw) ****
             **** DENSITY GGG-H_tt_011_OptFreq.scfp WAS UPDATED ****
             **** ENERGY FILE WAS UPDATED (GGG-H_tt_011_OptFreq.en.tmp) ****
             **** THE GBW FILE WAS UPDATED (GGG-H_tt_011_OptFreq.gbw) ****
             **** DENSITY GGG-H_tt_011_OptFreq.scfp WAS UPDATED ****
----------------
ORBITAL ENERGIES
----------------

  NO   OCC          E(Eh)            E(eV) 
   0   2.0000     -19.416442      -528.3482 
   1   2.0000     -19.369979      -527.0839 
   2   2.0000     -19.359113      -526.7883 
   3   2.0000     -19.310186      -525.4569 
   4   2.0000     -14.692979      -399.8163 
   5   2.0000     -14.612119      -397.6160 
   6   2.0000     -14.567616      -396.4050 
   7   2.0000     -10.572749      -287.6991 
   8   2.0000     -10.559043      -287.3262 
   9   2.0000     -10.518798      -286.2310 
  10   2.0000     -10.508968      -285.9636 
  11   2.0000     -10.459966      -284.6302 
  12   2.0000     -10.458359      -284.5864 
  13   2.0000      -1.398516       -38.0556 
  14   2.0000      -1.354645       -36.8618 
  15   2.0000      -1.307288       -35.5731 
  16   2.0000      -1.301095       -35.4046 
  17   2.0000      -1.287643       -35.0386 
  18   2.0000      -1.226953       -33.3871 
  19   2.0000      -1.189289       -32.3622 
  20   2.0000      -1.059585       -28.8328 
  21   2.0000      -1.023708       -27.8565 
  22   2.0000      -0.984734       -26.7960 
  23   2.0000      -0.896013       -24.3818 
  24   2.0000      -0.887431       -24.1482 
  25   2.0000      -0.874638       -23.8001 
  26   2.0000      -0.862938       -23.4817 
  27   2.0000      -0.834737       -22.7144 
  28   2.0000      -0.803897       -21.8752 
  29   2.0000      -0.788939       -21.4681 
  30   2.0000      -0.775884       -21.1129 
  31   2.0000      -0.763904       -20.7869 
  32   2.0000      -0.753391       -20.5008 
  33   2.0000      -0.737389       -20.0654 
  34   2.0000      -0.733171       -19.9506 
  35   2.0000      -0.717856       -19.5339 
  36   2.0000      -0.711270       -19.3547 
  37   2.0000      -0.687733       -18.7142 
  38   2.0000      -0.671376       -18.2691 
  39   2.0000      -0.658256       -17.9121 
  40   2.0000      -0.649795       -17.6818 
  41   2.0000      -0.646565       -17.5939 
  42   2.0000      -0.627907       -17.0862 
  43   2.0000      -0.619146       -16.8478 
  44   2.0000      -0.591202       -16.0874 
  45   2.0000      -0.558761       -15.2047 
  46   2.0000      -0.555699       -15.1213 
  47   2.0000      -0.543062       -14.7775 
  48   2.0000      -0.498429       -13.5629 
  49   2.0000      -0.486880       -13.2487 
  50   0.0000      -0.085249        -2.3198 
  51   0.0000      -0.065108        -1.7717 
  52   0.0000      -0.062771        -1.7081 
  53   0.0000      -0.033724        -0.9177 
  54   0.0000      -0.022396        -0.6094 
  55   0.0000      -0.017823        -0.4850 
  56   0.0000      -0.000201        -0.0055 
  57   0.0000       0.010952         0.2980 
  58   0.0000       0.018249         0.4966 
  59   0.0000       0.020477         0.5572 
  60   0.0000       0.037080         1.0090 
  61   0.0000       0.054183         1.4744 
  62   0.0000       0.066602         1.8123 
  63   0.0000       0.070084         1.9071 
  64   0.0000       0.074410         2.0248 
  65   0.0000       0.079396         2.1605 
  66   0.0000       0.087909         2.3921 
  67   0.0000       0.104448         2.8422 
  68   0.0000       0.107859         2.9350 
  69   0.0000       0.110551         3.0082 
  70   0.0000       0.118648         3.2286 
  71   0.0000       0.136566         3.7161 
  72   0.0000       0.148146         4.0313 
  73   0.0000       0.148934         4.0527 
  74   0.0000       0.162660         4.4262 
  75   0.0000       0.172418         4.6917 
  76   0.0000       0.182184         4.9575 
  77   0.0000       0.191607         5.2139 
  78   0.0000       0.195103         5.3090 
  79   0.0000       0.205334         5.5874 
  80   0.0000       0.218480         5.9451 
  81   0.0000       0.223036         6.0691 
  82   0.0000       0.236949         6.4477 
  83   0.0000       0.244853         6.6628 
  84   0.0000       0.259315         7.0563 
  85   0.0000       0.265942         7.2366 
  86   0.0000       0.277037         7.5386 
  87   0.0000       0.285092         7.7578 
  88   0.0000       0.294879         8.0241 
  89   0.0000       0.300505         8.1772 
  90   0.0000       0.305798         8.3212 
  91   0.0000       0.316310         8.6072 
  92   0.0000       0.321081         8.7371 
  93   0.0000       0.322144         8.7660 
  94   0.0000       0.326914         8.8958 
  95   0.0000       0.341409         9.2902 
  96   0.0000       0.342495         9.3198 
  97   0.0000       0.343980         9.3602 
  98   0.0000       0.353293         9.6136 
  99   0.0000       0.356702         9.7064 
 100   0.0000       0.358433         9.7535 
 101   0.0000       0.366118         9.9626 
 102   0.0000       0.372702        10.1417 
 103   0.0000       0.375819        10.2266 
 104   0.0000       0.387822        10.5532 
 105   0.0000       0.399025        10.8580 
 106   0.0000       0.410140        11.1605 
 107   0.0000       0.412815        11.2333 
 108   0.0000       0.423820        11.5327 
 109   0.0000       0.428987        11.6733 
 110   0.0000       0.436649        11.8818 
 111   0.0000       0.446240        12.1428 
 112   0.0000       0.460966        12.5435 
 113   0.0000       0.471568        12.8320 
 114   0.0000       0.479254        13.0412 
 115   0.0000       0.483348        13.1526 
 116   0.0000       0.487933        13.2773 
 117   0.0000       0.498888        13.5754 
 118   0.0000       0.506229        13.7752 
 119   0.0000       0.525435        14.2978 
 120   0.0000       0.537143        14.6164 
 121   0.0000       0.542349        14.7581 
 122   0.0000       0.547362        14.8945 
 123   0.0000       0.562511        15.3067 
 124   0.0000       0.568482        15.4692 
 125   0.0000       0.584493        15.9049 
 126   0.0000       0.598131        16.2760 
 127   0.0000       0.608384        16.5550 
 128   0.0000       0.621419        16.9097 
 129   0.0000       0.634364        17.2619 
 130   0.0000       0.648595        17.6492 
 131   0.0000       0.650417        17.6987 
 132   0.0000       0.654990        17.8232 
 133   0.0000       0.660181        17.9644 
 134   0.0000       0.685850        18.6629 
 135   0.0000       0.690176        18.7806 
 136   0.0000       0.705877        19.2079 
 137   0.0000       0.715729        19.4760 
 138   0.0000       0.723612        19.6905 
 139   0.0000       0.739190        20.1144 
 140   0.0000       0.750301        20.4167 
 141   0.0000       0.758362        20.6361 
 142   0.0000       0.769969        20.9519 
 143   0.0000       0.782931        21.3046 
 144   0.0000       0.788268        21.4499 
 145   0.0000       0.792117        21.5546 
 146   0.0000       0.808739        22.0069 
 147   0.0000       0.820354        22.3230 
 148   0.0000       0.829076        22.5603 
 149   0.0000       0.846130        23.0244 
 150   0.0000       0.860642        23.4193 
 151   0.0000       0.864460        23.5232 
 152   0.0000       0.875050        23.8113 
 153   0.0000       0.892178        24.2774 
 154   0.0000       0.894314        24.3355 
 155   0.0000       0.913895        24.8683 
 156   0.0000       0.917632        24.9700 
 157   0.0000       0.932389        25.3716 
 158   0.0000       0.940843        25.6016 
 159   0.0000       0.950508        25.8646 
 160   0.0000       0.960733        26.1429 
 161   0.0000       0.971991        26.4492 
 162   0.0000       0.976564        26.5737 
 163   0.0000       0.988124        26.8882 
 164   0.0000       0.997614        27.1464 
 165   0.0000       1.000847        27.2344 
 166   0.0000       1.020947        27.7814 
 167   0.0000       1.030461        28.0403 
 168   0.0000       1.038730        28.2653 
 169   0.0000       1.051598        28.6154 
 170   0.0000       1.062224        28.9046 
 171   0.0000       1.071956        29.1694 
 172   0.0000       1.085837        29.5471 
 173   0.0000       1.094366        29.7792 
 174   0.0000       1.095465        29.8091 
 175   0.0000       1.110761        30.2253 
 176   0.0000       1.116274        30.3754 
 177   0.0000       1.126442        30.6520 
 178   0.0000       1.132156        30.8075 
 179   0.0000       1.143084        31.1049 
 180   0.0000       1.148266        31.2459 
 181   0.0000       1.165896        31.7257 
 182   0.0000       1.178436        32.0669 
 183   0.0000       1.185160        32.2499 
 184   0.0000       1.193195        32.4685 
 185   0.0000       1.213619        33.0242 
 186   0.0000       1.217335        33.1254 
 187   0.0000       1.239683        33.7335 
 188   0.0000       1.251279        34.0490 
 189   0.0000       1.262902        34.3653 
 190   0.0000       1.274829        34.6899 
 191   0.0000       1.278380        34.7865 
 192   0.0000       1.298660        35.3383 
 193   0.0000       1.306412        35.5493 
 194   0.0000       1.329186        36.1690 
 195   0.0000       1.348480        36.6940 
 196   0.0000       1.359386        36.9908 
 197   0.0000       1.375943        37.4413 
 198   0.0000       1.384690        37.6793 
 199   0.0000       1.390920        37.8489 
 200   0.0000       1.411814        38.4174 
 201   0.0000       1.415849        38.5272 
 202   0.0000       1.419460        38.6255 
 203   0.0000       1.428143        38.8617 
 204   0.0000       1.428956        38.8839 
 205   0.0000       1.441712        39.2310 
 206   0.0000       1.442628        39.2559 
 207   0.0000       1.453024        39.5388 
 208   0.0000       1.460700        39.7477 
 209   0.0000       1.473320        40.0911 
 210   0.0000       1.498512        40.7766 
 211   0.0000       1.513687        41.1895 
 212   0.0000       1.520533        41.3758 
 213   0.0000       1.530835        41.6561 
 214   0.0000       1.536005        41.7968 
 215   0.0000       1.544494        42.0278 
 216   0.0000       1.559271        42.4299 
 217   0.0000       1.573720        42.8231 
 218   0.0000       1.580845        43.0170 
 219   0.0000       1.594815        43.3971 
 220   0.0000       1.615601        43.9627 
 221   0.0000       1.637497        44.5586 
 222   0.0000       1.655909        45.0596 
 223   0.0000       1.663847        45.2756 
 224   0.0000       1.687877        45.9295 
 225   0.0000       1.704235        46.3746 
 226   0.0000       1.728931        47.0466 
 227   0.0000       1.740548        47.3627 
 228   0.0000       1.743184        47.4344 
 229   0.0000       1.763333        47.9827 
 230   0.0000       1.765304        48.0364 
 231   0.0000       1.776060        48.3290 
 232   0.0000       1.812304        49.3153 
 233   0.0000       1.829702        49.7887 
 234   0.0000       1.836927        49.9853 
 235   0.0000       1.852914        50.4204 
 236   0.0000       1.878213        51.1088 
 237   0.0000       1.882269        51.2192 
 238   0.0000       1.915621        52.1267 
 239   0.0000       1.930209        52.5237 
 240   0.0000       1.943116        52.8749 
 241   0.0000       1.945443        52.9382 
 242   0.0000       1.976669        53.7879 
 243   0.0000       1.984785        54.0087 
 244   0.0000       2.013503        54.7902 
 245   0.0000       2.015141        54.8348 
 246   0.0000       2.029140        55.2157 
 247   0.0000       2.051411        55.8217 
 248   0.0000       2.059522        56.0424 
 249   0.0000       2.084639        56.7259 
 250   0.0000       2.089555        56.8597 
 251   0.0000       2.103999        57.2527 
 252   0.0000       2.152517        58.5730 
 253   0.0000       2.162408        58.8421 
 254   0.0000       2.208332        60.0918 
 255   0.0000       2.226236        60.5789 
 256   0.0000       2.234086        60.7926 
 257   0.0000       2.243312        61.0436 
 258   0.0000       2.270744        61.7901 
 259   0.0000       2.288182        62.2646 
 260   0.0000       2.301774        62.6344 
 261   0.0000       2.308201        62.8093 
 262   0.0000       2.321178        63.1625 
 263   0.0000       2.341135        63.7055 
 264   0.0000       2.381485        64.8035 
 265   0.0000       2.405781        65.4646 
 266   0.0000       2.423830        65.9558 
 267   0.0000       2.456544        66.8460 
 268   0.0000       2.463640        67.0391 
 269   0.0000       2.479282        67.4647 
 270   0.0000       2.492799        67.8325 
 271   0.0000       2.514442        68.4214 
 272   0.0000       2.520420        68.5841 
 273   0.0000       2.527606        68.7797 
 274   0.0000       2.541927        69.1694 
 275   0.0000       2.552506        69.4572 
 276   0.0000       2.574061        70.0438 
 277   0.0000       2.586343        70.3780 
 278   0.0000       2.609457        71.0069 
 279   0.0000       2.609798        71.0162 
 280   0.0000       2.618412        71.2506 
 281   0.0000       2.623757        71.3961 
 282   0.0000       2.632080        71.6226 
 283   0.0000       2.646832        72.0240 
 284   0.0000       2.662659        72.4546 
 285   0.0000       2.692651        73.2708 
 286   0.0000       2.699834        73.4662 
 287   0.0000       2.715888        73.9031 
 288   0.0000       2.729732        74.2798 
 289   0.0000       2.740546        74.5740 
 290   0.0000       2.754850        74.9633 
 291   0.0000       2.774135        75.4880 
 292   0.0000       2.785290        75.7916 
 293   0.0000       2.808447        76.4217 
 294   0.0000       2.821729        76.7832 
 295   0.0000       2.831735        77.0554 
 296   0.0000       2.851272        77.5870 
 297   0.0000       2.854810        77.6833 
 298   0.0000       2.868771        78.0632 
 299   0.0000       2.880611        78.3854 
 300   0.0000       2.889077        78.6158 
 301   0.0000       2.907478        79.1165 
 302   0.0000       2.914952        79.3199 
 303   0.0000       2.923821        79.5612 
 304   0.0000       2.940747        80.0218 
 305   0.0000       2.949289        80.2542 
 306   0.0000       2.952441        80.3400 
 307   0.0000       2.959411        80.5297 
 308   0.0000       2.972238        80.8787 
 309   0.0000       2.982682        81.1629 
 310   0.0000       3.007439        81.8366 
 311   0.0000       3.013010        81.9882 
 312   0.0000       3.023391        82.2707 
 313   0.0000       3.036335        82.6229 
 314   0.0000       3.044849        82.8546 
 315   0.0000       3.047309        82.9215 
 316   0.0000       3.056024        83.1586 
 317   0.0000       3.061360        83.3038 
 318   0.0000       3.074631        83.6650 
 319   0.0000       3.078913        83.7815 
 320   0.0000       3.091322        84.1192 
 321   0.0000       3.106046        84.5198 
 322   0.0000       3.111043        84.6558 
 323   0.0000       3.121365        84.9367 
 324   0.0000       3.128585        85.1331 
 325   0.0000       3.135026        85.3084 
 326   0.0000       3.150296        85.7239 
 327   0.0000       3.169299        86.2410 
 328   0.0000       3.179634        86.5222 
 329   0.0000       3.183941        86.6394 
 330   0.0000       3.197078        86.9969 
 331   0.0000       3.205565        87.2279 
 332   0.0000       3.221299        87.6560 
 333   0.0000       3.230262        87.8999 
 334   0.0000       3.235788        88.0503 
 335   0.0000       3.252882        88.5154 
 336   0.0000       3.268717        88.9463 
 337   0.0000       3.282808        89.3297 
 338   0.0000       3.284389        89.3728 
 339   0.0000       3.291696        89.5716 
 340   0.0000       3.298363        89.7530 
 341   0.0000       3.302878        89.8759 
 342   0.0000       3.315518        90.2198 
 343   0.0000       3.325576        90.4935 
 344   0.0000       3.338154        90.8358 
 345   0.0000       3.348753        91.1242 
 346   0.0000       3.360157        91.4345 
 347   0.0000       3.364099        91.5418 
 348   0.0000       3.378771        91.9410 
 349   0.0000       3.385096        92.1132 
 350   0.0000       3.396842        92.4328 
 351   0.0000       3.401706        92.5651 
 352   0.0000       3.416546        92.9689 
 353   0.0000       3.430865        93.3586 
 354   0.0000       3.437606        93.5420 
 355   0.0000       3.454078        93.9902 
 356   0.0000       3.464668        94.2784 
 357   0.0000       3.466443        94.3267 
 358   0.0000       3.472868        94.5015 
 359   0.0000       3.483033        94.7782 
 360   0.0000       3.503654        95.3393 
 361   0.0000       3.528945        96.0275 
 362   0.0000       3.534745        96.1853 
 363   0.0000       3.547261        96.5259 
 364   0.0000       3.564539        96.9960 
 365   0.0000       3.572390        97.2097 
 366   0.0000       3.582165        97.4757 
 367   0.0000       3.589316        97.6703 
 368   0.0000       3.599409        97.9449 
 369   0.0000       3.602426        98.0270 
 370   0.0000       3.614945        98.3677 
 371   0.0000       3.625952        98.6672 
 372   0.0000       3.630182        98.7823 
 373   0.0000       3.650450        99.3338 
 374   0.0000       3.662777        99.6692 
 375   0.0000       3.681250       100.1719 
 376   0.0000       3.690343       100.4193 
 377   0.0000       3.704548       100.8059 
 378   0.0000       3.723203       101.3135 
 379   0.0000       3.732960       101.5790 
 380   0.0000       3.745950       101.9325 
 381   0.0000       3.765694       102.4697 
 382   0.0000       3.770992       102.6139 
 383   0.0000       3.794869       103.2636 
 384   0.0000       3.804607       103.5286 
 385   0.0000       3.809960       103.6743 
 386   0.0000       3.830660       104.2376 
 387   0.0000       3.839693       104.4834 
 388   0.0000       3.851024       104.7917 
 389   0.0000       3.863364       105.1275 
 390   0.0000       3.884359       105.6988 
 391   0.0000       3.902494       106.1923 
 392   0.0000       3.916819       106.5821 
 393   0.0000       3.925382       106.8151 
 394   0.0000       3.936070       107.1059 
 395   0.0000       3.940799       107.2346 
 396   0.0000       3.955320       107.6297 
 397   0.0000       3.963778       107.8599 
 398   0.0000       3.987599       108.5081 
 399   0.0000       3.991463       108.6132 
 400   0.0000       3.998838       108.8139 
 401   0.0000       4.011361       109.1547 
 402   0.0000       4.028608       109.6240 
 403   0.0000       4.042600       110.0048 
 404   0.0000       4.053093       110.2903 
 405   0.0000       4.066358       110.6512 
 406   0.0000       4.087120       111.2162 
 407   0.0000       4.099533       111.5540 
 408   0.0000       4.107970       111.7835 
 409   0.0000       4.116320       112.0108 
 410   0.0000       4.132796       112.4591 
 411   0.0000       4.157891       113.1420 
 412   0.0000       4.161966       113.2529 
 413   0.0000       4.177943       113.6876 
 414   0.0000       4.182797       113.8197 
 415   0.0000       4.197664       114.2243 
 416   0.0000       4.205677       114.4423 
 417   0.0000       4.217423       114.7619 
 418   0.0000       4.226954       115.0213 
 419   0.0000       4.247676       115.5851 
 420   0.0000       4.259187       115.8984 
 421   0.0000       4.266691       116.1026 
 422   0.0000       4.271028       116.2206 
 423   0.0000       4.280898       116.4891 
 424   0.0000       4.314594       117.4061 
 425   0.0000       4.325465       117.7019 
 426   0.0000       4.347516       118.3019 
 427   0.0000       4.376784       119.0983 
 428   0.0000       4.389550       119.4457 
 429   0.0000       4.409383       119.9854 
 430   0.0000       4.418897       120.2443 
 431   0.0000       4.432393       120.6115 
 432   0.0000       4.481429       121.9459 
 433   0.0000       4.490527       122.1934 
 434   0.0000       4.502741       122.5258 
 435   0.0000       4.521652       123.0404 
 436   0.0000       4.547992       123.7572 
 437   0.0000       4.571498       124.3968 
 438   0.0000       4.584584       124.7529 
 439   0.0000       4.612135       125.5026 
 440   0.0000       4.620865       125.7401 
 441   0.0000       4.625824       125.8751 
 442   0.0000       4.645361       126.4067 
 443   0.0000       4.656325       126.7050 
 444   0.0000       4.672974       127.1581 
 445   0.0000       4.696296       127.7927 
 446   0.0000       4.719093       128.4131 
 447   0.0000       4.727087       128.6306 
 448   0.0000       4.749220       129.2328 
 449   0.0000       4.759882       129.5230 
 450   0.0000       4.777364       129.9987 
 451   0.0000       4.789270       130.3227 
 452   0.0000       4.799605       130.6039 
 453   0.0000       4.817035       131.0782 
 454   0.0000       4.838430       131.6604 
 455   0.0000       4.851365       132.0124 
 456   0.0000       4.863430       132.3407 
 457   0.0000       4.882018       132.8465 
 458   0.0000       4.926169       134.0479 
 459   0.0000       4.954304       134.8135 
 460   0.0000       4.962375       135.0331 
 461   0.0000       4.987312       135.7117 
 462   0.0000       4.995612       135.9375 
 463   0.0000       5.014381       136.4482 
 464   0.0000       5.023844       136.7057 
 465   0.0000       5.038156       137.0952 
 466   0.0000       5.067502       137.8937 
 467   0.0000       5.096168       138.6738 
 468   0.0000       5.101433       138.8171 
 469   0.0000       5.106162       138.9457 
 470   0.0000       5.121139       139.3533 
 471   0.0000       5.136382       139.7681 
 472   0.0000       5.144440       139.9873 
 473   0.0000       5.159003       140.3836 
 474   0.0000       5.166461       140.5866 
 475   0.0000       5.184175       141.0686 
 476   0.0000       5.199092       141.4745 
 477   0.0000       5.208945       141.7426 
 478   0.0000       5.232146       142.3739 
 479   0.0000       5.252097       142.9168 
 480   0.0000       5.259618       143.1215 
 481   0.0000       5.261450       143.1713 
 482   0.0000       5.282754       143.7511 
 483   0.0000       5.311471       144.5325 
 484   0.0000       5.321610       144.8084 
 485   0.0000       5.329892       145.0337 
 486   0.0000       5.353174       145.6673 
 487   0.0000       5.358188       145.8037 
 488   0.0000       5.365796       146.0107 
 489   0.0000       5.399527       146.9286 
 490   0.0000       5.410941       147.2392 
 491   0.0000       5.444671       148.1570 
 492   0.0000       5.455350       148.4476 
 493   0.0000       5.462818       148.6508 
 494   0.0000       5.506241       149.8324 
 495   0.0000       5.521158       150.2384 
 496   0.0000       5.531218       150.5121 
 497   0.0000       5.548162       150.9732 
 498   0.0000       5.552762       151.0983 
 499   0.0000       5.565042       151.4325 
 500   0.0000       5.573693       151.6679 
 501   0.0000       5.591029       152.1396 
 502   0.0000       5.595714       152.2671 
 503   0.0000       5.630661       153.2181 
 504   0.0000       5.641124       153.5028 
 505   0.0000       5.647506       153.6764 
 506   0.0000       5.667781       154.2282 
 507   0.0000       5.698159       155.0548 
 508   0.0000       5.758348       156.6926 
 509   0.0000       5.780236       157.2882 
 510   0.0000       5.823202       158.4574 
 511   0.0000       5.840047       158.9158 
 512   0.0000       5.860936       159.4842 
 513   0.0000       5.901917       160.5993 
 514   0.0000       5.929859       161.3597 
 515   0.0000       5.964084       162.2910 
 516   0.0000       5.973402       162.5445 
 517   0.0000       5.988194       162.9470 
 518   0.0000       6.006667       163.4497 
 519   0.0000       6.086549       165.6234 
 520   0.0000       6.093560       165.8142 
 521   0.0000       6.144411       167.1979 
 522   0.0000       6.150233       167.3564 
 523   0.0000       6.191679       168.4841 
 524   0.0000       6.272569       170.6853 
 525   0.0000       6.312701       171.7773 
 526   0.0000       6.319378       171.9590 
 527   0.0000       6.331810       172.2973 
 528   0.0000       6.384660       173.7354 
 529   0.0000       6.390296       173.8888 
 530   0.0000       6.404293       174.2697 
 531   0.0000       6.423433       174.7905 
 532   0.0000       6.438190       175.1920 
 533   0.0000       6.471527       176.0992 
 534   0.0000       6.482753       176.4047 
 535   0.0000       6.486497       176.5066 
 536   0.0000       6.528724       177.6556 
 537   0.0000       6.548486       178.1934 
 538   0.0000       6.592516       179.3915 
 539   0.0000       6.621805       180.1885 
 540   0.0000       6.662204       181.2878 
 541   0.0000       6.711040       182.6167 
 542   0.0000       6.722035       182.9159 
 543   0.0000       6.736305       183.3042 
 544   0.0000       6.785119       184.6325 
 545   0.0000       6.812226       185.3701 
 546   0.0000       6.834542       185.9773 
 547   0.0000       6.847921       186.3414 
 548   0.0000       6.874344       187.0604 
 549   0.0000       6.935398       188.7218 
 550   0.0000       7.046521       191.7456 
 551   0.0000       7.084619       192.7823 
 552   0.0000       7.142724       194.3634 
 553   0.0000       7.164591       194.9584 
 554   0.0000       7.221184       196.4984 
 555   0.0000       7.314915       199.0490 
 556   0.0000       7.415676       201.7908 
 557   0.0000       7.447633       202.6604 
 558   0.0000      23.115000       628.9911 
 559   0.0000      23.193155       631.1178 
 560   0.0000      23.242601       632.4633 
 561   0.0000      23.293202       633.8403 
 562   0.0000      23.337051       635.0334 
 563   0.0000      23.391610       636.5181 
 564   0.0000      32.710963       890.1105 
 565   0.0000      32.823930       893.1845 
 566   0.0000      32.894733       895.1112 
 567   0.0000      43.858423      1193.4484 
 568   0.0000      43.887709      1194.2453 
 569   0.0000      43.928348      1195.3511 
 570   0.0000      43.973982      1196.5929 

                    ********************************
                    * MULLIKEN POPULATION ANALYSIS *
                    ********************************

-----------------------
MULLIKEN ATOMIC CHARGES
-----------------------
   0 N :   -0.198574
   1 H :    0.190190
   2 C :   -0.088095
   3 C :    0.372746
   4 H :    0.152230
   5 H :    0.159318
   6 O :   -0.436942
   7 C :    0.232948
   8 C :   -0.102979
   9 O :   -0.337764
  10 N :   -0.169611
  11 H :    0.153440
  12 H :    0.152972
  13 H :    0.200289
  14 C :    0.295285
  15 C :   -0.161272
  16 O :   -0.424796
  17 H :    0.175672
  18 H :    0.160594
  19 O :   -0.220799
  20 H :    0.248853
  21 N :   -0.071129
  22 H :    0.235642
  23 H :    0.234343
  24 H :    0.247437
Sum of atomic charges:    1.0000000

--------------------------------
MULLIKEN REDUCED ORBITAL CHARGES
--------------------------------
  0 N s       :     3.406326  s :     3.406326
      pz      :     1.050622  p :     3.733322
      px      :     1.121918
      py      :     1.560782
      dz2     :     0.013135  d :     0.055215
      dxz     :     0.018971
      dyz     :     0.009400
      dx2y2   :     0.006713
      dxy     :     0.006996
      f0      :     0.000636  f :     0.003711
      f+1     :     0.000723
      f-1     :     0.000476
      f+2     :     0.000358
      f-2     :     0.000379
      f+3     :     0.000584
      f-3     :     0.000554
  1 H s       :     0.739956  s :     0.739956
      pz      :     0.021652  p :     0.064491
      px      :     0.019371
      py      :     0.023468
      dz2     :     0.001190  d :     0.005364
      dxz     :     0.001181
      dyz     :     0.000962
      dx2y2   :     0.000946
      dxy     :     0.001084
  2 C s       :     3.163054  s :     3.163054
      pz      :     0.804102  p :     2.806789
      px      :     1.033266
      py      :     0.969421
      dz2     :     0.018741  d :     0.110206
      dxz     :     0.026543
      dyz     :     0.035997
      dx2y2   :     0.009618
      dxy     :     0.019307
      f0      :     0.001948  f :     0.008047
      f+1     :     0.001526
      f-1     :     0.002178
      f+2     :     0.000282
      f-2     :     0.000911
      f+3     :     0.000701
      f-3     :     0.000500
  3 C s       :     3.084190  s :     3.084190
      pz      :     0.681984  p :     2.259763
      px      :     0.764780
      py      :     0.812999
      dz2     :     0.081157  d :     0.258268
      dxz     :     0.056754
      dyz     :     0.055751
      dx2y2   :     0.034428
      dxy     :     0.030178
      f0      :     0.005415  f :     0.025034
      f+1     :     0.003664
      f-1     :     0.005901
      f+2     :     0.003187
      f-2     :     0.003499
      f+3     :     0.001482
      f-3     :     0.001885
  4 H s       :     0.806625  s :     0.806625
      pz      :     0.011040  p :     0.038933
      px      :     0.018832
      py      :     0.009061
      dz2     :     0.000607  d :     0.002212
      dxz     :     0.000508
      dyz     :     0.000221
      dx2y2   :     0.000321
      dxy     :     0.000554
  5 H s       :     0.805631  s :     0.805631
      pz      :     0.007201  p :     0.033004
      px      :     0.010493
      py      :     0.015310
      dz2     :     0.000464  d :     0.002047
      dxz     :     0.000225
      dyz     :     0.000363
      dx2y2   :     0.000508
      dxy     :     0.000486
  6 O s       :     3.809561  s :     3.809561
      pz      :     1.544095  p :     4.599961
      px      :     1.548841
      py      :     1.507025
      dz2     :     0.005803  d :     0.025447
      dxz     :     0.005095
      dyz     :     0.006866
      dx2y2   :     0.004231
      dxy     :     0.003452
      f0      :     0.000297  f :     0.001973
      f+1     :     0.000222
      f-1     :     0.000437
      f+2     :     0.000439
      f-2     :     0.000376
      f+3     :     0.000082
      f-3     :     0.000120
[...]
     53       0.000032   0.543817  -0.001611  -0.064296   0.004695   0.006012
     54       0.000035  -0.393130   0.000710   0.003761  -0.019701   0.002178
     55       0.000075  -0.562411   0.001003   0.010261  -0.015306   0.001727
     56      -0.000020   0.401801  -0.000724  -0.010542   0.011020  -0.001045
     57       0.000031   0.000032  -0.000005   0.000276  -0.000059  -0.000087
     58      -0.000036  -0.000047   0.000014  -0.000588   0.000131   0.000162
     59      -0.000094  -0.000127  -0.000014  -0.001381   0.000258   0.000144
     60       0.001182  -0.000312  -0.000048  -0.003514   0.000665   0.001412
     61       0.000174   0.000502   0.000028   0.006183  -0.001201  -0.002440
     62      -0.000608   0.000265  -0.000034   0.003081  -0.000713  -0.000058
     63       0.000003  -0.001775  -0.000032  -0.007220   0.033701   0.045999
     64      -0.000019  -0.000912  -0.000051   0.011041   0.048262  -0.060696
     65      -0.000030   0.005029   0.000018   0.065449  -0.034523  -0.006704
     66       0.000037  -0.000302   0.000112  -0.081928  -0.124199  -0.679698
     67      -0.000031  -0.000078   0.000038   0.083463   0.124494   0.700219
     68       0.000004  -0.000179   0.000009   0.000954   0.015170   0.085261
     69       0.000130   0.001306   0.000586  -0.031096  -0.354579   0.069645
     70       0.000180   0.016273   0.000651  -0.084293  -0.832838   0.137545
     71      -0.000183  -0.011688  -0.000211   0.046318   0.367927  -0.067333
     72      -0.000239   0.018425   0.000004   0.196369  -0.010522  -0.010991
     73      -0.000044  -0.006987  -0.000064  -0.147092   0.021542   0.002701
     74       0.000553  -0.052129  -0.000029  -0.951991   0.089658   0.077951
                 72         73         74    
      0      -0.001334   0.046011   0.000099
      1      -0.000886   0.030319  -0.000011
      2       0.001445  -0.049150   0.000106
      3       0.018470  -0.627399   0.000293
      4       0.012149  -0.395795   0.000627
      5      -0.019510   0.665745  -0.000740
      6      -0.000035   0.000808   0.000242
      7       0.000020  -0.000361  -0.000722
      8      -0.000017   0.001258  -0.000162
      9      -0.000031   0.000003  -0.001152
     10       0.000020   0.000029   0.001871
     11       0.000124   0.000073  -0.001170
     12       0.000194  -0.004292  -0.000885
     13       0.000021  -0.001023  -0.000664
     14      -0.000342   0.008895   0.002160
     15       0.000108  -0.004120   0.001700
     16       0.000097  -0.002790   0.001520
     17       0.000094  -0.002668   0.001569
     18       0.000019   0.000071  -0.000234
     19      -0.000020  -0.000069   0.000340
     20      -0.000079  -0.000023   0.001005
     21      -0.000050  -0.000236  -0.000101
     22      -0.000073  -0.000465  -0.000060
     23       0.000108  -0.001207  -0.000051
     24       0.000938   0.000070  -0.000001
     25      -0.000214   0.000366   0.000002
     26      -0.000813   0.000112  -0.000010
     27       0.000097  -0.000776   0.000043
     28       0.000084  -0.000784   0.000012
     29      -0.000054   0.000484   0.000015
     30       0.033610   0.001378   0.000039
     31       0.063986   0.001927   0.000089
     32      -0.012849  -0.000387   0.000013
     33      -0.001842  -0.002220  -0.000030
     34      -0.009800  -0.003022   0.000023
     35       0.002711   0.001034   0.000002
     36      -0.005646  -0.000379   0.000016
     37       0.000231  -0.000407   0.000035
     38       0.000365  -0.000408   0.000057
     39      -0.440549  -0.012733  -0.000637
     40      -0.873967  -0.025684  -0.001206
     41       0.188704   0.005611   0.000069
     42      -0.001338  -0.000880   0.000000
     43       0.001045  -0.000511  -0.000037
     44      -0.000544   0.000078  -0.000045
     45       0.000325   0.000043   0.000000
     46       0.000165   0.000061   0.000009
     47      -0.000030  -0.000009  -0.000012
     48      -0.000951   0.000351  -0.000001
     49      -0.000888   0.000349   0.000020
     50       0.000042  -0.000128   0.000030
     51      -0.000628   0.000097  -0.000058
     52       0.000077  -0.000079  -0.000033
     53       0.000307  -0.000137  -0.000004
     54      -0.003810  -0.000273  -0.000024
     55      -0.003656   0.000402  -0.000248
     56       0.001665  -0.000058  -0.000005
     57       0.000045   0.000017  -0.031208
     58      -0.000063   0.000005   0.052281
     59      -0.000043   0.000036  -0.009028
     60      -0.000795   0.000419   0.506882
     61       0.001151  -0.000816  -0.848329
     62      -0.000095   0.000161   0.139779
     63       0.000001   0.000137  -0.000216
     64       0.000488   0.000181   0.000200
     65      -0.000229  -0.000348   0.000406
     66       0.002141   0.000178   0.001505
     67      -0.002292  -0.000080  -0.001581
     68      -0.000275  -0.000047   0.000274
     69      -0.001100  -0.000830   0.000229
     70      -0.005143  -0.003587   0.000010
     71       0.002255   0.001407  -0.000235
     72      -0.000238  -0.001237   0.002539
     73       0.000134   0.000697  -0.002377
     74       0.001857   0.004169  -0.006319


-----------
IR SPECTRUM
-----------

 Mode   freq       eps      Int      T**2         TX        TY        TZ
       cm**-1   L/(mol*cm) km/mol    a.u.
----------------------------------------------------------------------------
  6:     35.99   0.000444    2.24  0.003851  ( 0.040661 -0.046561  0.005475)
  7:     54.35   0.001784    9.02  0.010245  (-0.081438  0.053774  0.026860)
  8:     74.66   0.000279    1.41  0.001165  ( 0.024078 -0.004463  0.023774)
  9:     84.40   0.000424    2.14  0.001566  (-0.024354  0.013497  0.028120)
 10:    110.86   0.005669   28.65  0.015958  (-0.005580  0.094458  0.083695)
 11:    125.28   0.001537    7.77  0.003828  ( 0.019868 -0.016190  0.056309)
 12:    182.96   0.009865   49.85  0.016825  ( 0.027455 -0.004749 -0.126685)
 13:    207.51   0.000247    1.25  0.000372  (-0.005109  0.006005  0.017599)
 14:    256.39   0.001260    6.37  0.001534  (-0.016424 -0.019703 -0.029599)
 15:    266.15   0.003502   17.70  0.004107  ( 0.041044 -0.047100 -0.014269)
 16:    292.65   0.001669    8.44  0.001780  ( 0.028356  0.027861  0.014129)
 17:    331.74   0.003113   15.73  0.002929  ( 0.047776 -0.024032  0.008275)
 18:    366.89   0.007138   36.07  0.006071  (-0.060920  0.048547  0.001773)
 19:    397.43   0.010285   51.98  0.008076  (-0.074793  0.047051 -0.016383)
 20:    440.52   0.001552    7.84  0.001099  (-0.011516 -0.029770  0.008970)
 21:    490.10   0.006085   30.75  0.003874  (-0.005767 -0.007056  0.061574)
 22:    516.83   0.007515   37.98  0.004538  ( 0.049210 -0.029683  0.035143)
 23:    526.88   0.021235  107.31  0.012577  (-0.011190 -0.105143 -0.037380)
 24:    569.43   0.012253   61.92  0.006715  ( 0.034075  0.012108  0.073534)
 25:    627.70   0.015092   76.27  0.007503  ( 0.026628  0.081623 -0.011484)
 26:    646.12   0.010747   54.31  0.005191  ( 0.044375  0.029542  0.048466)
 27:    674.73   0.013107   66.24  0.006062  (-0.073776 -0.024699 -0.003014)
 28:    703.19   0.000119    0.60  0.000053  ( 0.004509 -0.002114 -0.005307)
 29:    714.27   0.003349   16.92  0.001463  (-0.017508  0.010475 -0.032354)
 30:    812.57   0.001597    8.07  0.000613  ( 0.009525 -0.013720 -0.018283)
 31:    873.39   0.002711   13.70  0.000969  (-0.029888  0.007942  0.003488)
 32:    887.37   0.006332   32.00  0.002227  (-0.000762 -0.004434 -0.046973)
 33:    902.69   0.001799    9.09  0.000622  ( 0.013866  0.010882  0.017637)
 34:    926.70   0.005744   29.03  0.001934  ( 0.001367 -0.001299 -0.043941)
 35:   1003.16   0.001314    6.64  0.000409  (-0.015355  0.009869 -0.008696)
 36:   1023.85   0.000902    4.56  0.000275  (-0.005861  0.015045 -0.003760)
 37:   1064.22   0.002198   11.11  0.000645  (-0.000044  0.024451  0.006836)
 38:   1073.71   0.001351    6.83  0.000393  (-0.011029  0.015974 -0.003967)
 39:   1126.85   0.000872    4.41  0.000241  (-0.004892 -0.014374  0.003298)
 40:   1137.49   0.005913   29.88  0.001622  ( 0.016161 -0.027698 -0.024370)
 41:   1161.26   0.003363   17.00  0.000904  (-0.008817  0.013772 -0.025225)
 42:   1209.47   0.042271  213.62  0.010907  (-0.029022  0.028105 -0.096305)
 43:   1243.76   0.004607   23.28  0.001156  ( 0.027412  0.016606  0.011348)
 44:   1299.83   0.005684   28.72  0.001365  ( 0.026509 -0.025710  0.000938)
 45:   1303.28   0.004971   25.12  0.001190  ( 0.028698 -0.017860 -0.006917)
 46:   1319.90   0.006213   31.40  0.001469  ( 0.018436 -0.000680  0.033595)
 47:   1348.01   0.001107    5.59  0.000256  ( 0.007349 -0.004179 -0.013591)
 48:   1351.61   0.006949   35.12  0.001604  ( 0.012055 -0.006598  0.037624)
 49:   1386.19   0.000635    3.21  0.000143  (-0.000820  0.010071  0.006399)
 50:   1428.09   0.001113    5.62  0.000243  (-0.003569  0.015180 -0.000071)
 51:   1448.60   0.006498   32.84  0.001400  ( 0.022286 -0.029669 -0.004788)
 52:   1470.62   0.017517   88.52  0.003717  ( 0.005764 -0.015261  0.058744)
 53:   1490.10   0.004443   22.45  0.000930  ( 0.010140  0.013259 -0.025531)
 54:   1492.49   0.005177   26.16  0.001082  ( 0.018169  0.025585  0.009883)
 55:   1516.83   0.040600  205.18  0.008353  (-0.091353  0.000757 -0.002630)
 56:   1574.82   0.024613  124.38  0.004877  ( 0.030528  0.043738  0.045081)
 57:   1593.18   0.040060  202.45  0.007847  ( 0.086160 -0.015092  0.013975)
 58:   1613.95   0.005224   26.40  0.001010  ( 0.001604  0.031647 -0.002431)
 59:   1682.88   0.020512  103.66  0.003804  (-0.036762  0.036049  0.033951)
 60:   1778.76   0.040683  205.60  0.007137  (-0.028569 -0.055757 -0.056677)
 61:   1789.34   0.103434  522.71  0.018039  ( 0.077631 -0.009588 -0.109181)
 62:   1806.60   0.048182  243.49  0.008323  (-0.069697 -0.058634  0.005200)
 63:   3111.97   0.001199    6.06  0.000120  ( 0.009085 -0.003521  0.005025)
 64:   3123.91   0.000183    0.93  0.000018  ( 0.003158  0.000040  0.002884)
 65:   3139.42   0.000435    2.20  0.000043  (-0.004168  0.005043 -0.000668)
 66:   3167.31   0.000385    1.95  0.000038  ( 0.005721  0.002246 -0.000456)
 67:   3191.66   0.000138    0.69  0.000013  ( 0.002027 -0.000281 -0.003042)
 68:   3205.95   0.000005    0.02  0.000000  ( 0.000013 -0.000523  0.000442)
 69:   3239.96   0.111713  564.55  0.010760  ( 0.027001 -0.033985 -0.094212)
 70:   3382.31   0.020243  102.30  0.001868  (-0.011199 -0.030501  0.028495)
 71:   3559.13   0.026814  135.51  0.002351  (-0.032098  0.035276  0.008741)
 72:   3651.31   0.012134   61.32  0.001037  (-0.022853 -0.022600  0.002002)
 73:   3668.75   0.012528   63.31  0.001066  (-0.022107 -0.013570  0.019817)
 74:   3803.27   0.023718  119.86  0.001946  ( 0.019609 -0.031320  0.024097)

* The epsilon (eps) is given for a Dirac delta lineshape.
** The dipole moment derivative (T) already includes vibrational overlap.

The first frequency considered to be a vibration is 6
The total number of vibrations considered is 69


--------------------------
THERMOCHEMISTRY AT 298.15K
--------------------------

Temperature         ... 298.15 K
Pressure            ... 1.00 atm
Total Mass          ... 190.18 AMU

Throughout the following assumptions are being made:
  (1) The electronic state is orbitally nondegenerate
  (2) There are no thermally accessible electronically excited states
  (3) Hindered rotations indicated by low frequency modes are not
      treated as such but are treated as vibrations and this may
      cause some error
  (4) All equations used are the standard statistical mechanics
      equations for an ideal gas
  (5) All vibrations are strictly harmonic

freq.      35.99  E(vib)   ...       0.54 
freq.      54.35  E(vib)   ...       0.52 
freq.      74.66  E(vib)   ...       0.49 
freq.      84.40  E(vib)   ...       0.48 
freq.     110.86  E(vib)   ...       0.45 
freq.     125.28  E(vib)   ...       0.43 
freq.     182.96  E(vib)   ...       0.37 
freq.     207.51  E(vib)   ...       0.34 
freq.     256.39  E(vib)   ...       0.30 
freq.     266.15  E(vib)   ...       0.29 
freq.     292.65  E(vib)   ...       0.27 
freq.     331.74  E(vib)   ...       0.24 
freq.     366.89  E(vib)   ...       0.22 
freq.     397.43  E(vib)   ...       0.20 
freq.     440.52  E(vib)   ...       0.17 
freq.     490.10  E(vib)   ...       0.15 
freq.     516.83  E(vib)   ...       0.13 
freq.     526.88  E(vib)   ...       0.13 
freq.     569.43  E(vib)   ...       0.11 
freq.     627.70  E(vib)   ...       0.09 
freq.     646.12  E(vib)   ...       0.09 
freq.     674.73  E(vib)   ...       0.08 
freq.     703.19  E(vib)   ...       0.07 
freq.     714.27  E(vib)   ...       0.07 
freq.     812.57  E(vib)   ...       0.05 
freq.     873.39  E(vib)   ...       0.04 
freq.     887.37  E(vib)   ...       0.04 
freq.     902.69  E(vib)   ...       0.03 
freq.     926.70  E(vib)   ...       0.03 
freq.    1003.16  E(vib)   ...       0.02 
freq.    1023.85  E(vib)   ...       0.02 
freq.    1064.22  E(vib)   ...       0.02 
freq.    1073.71  E(vib)   ...       0.02 
freq.    1126.85  E(vib)   ...       0.01 
freq.    1137.49  E(vib)   ...       0.01 
freq.    1161.26  E(vib)   ...       0.01 
freq.    1209.47  E(vib)   ...       0.01 
freq.    1243.76  E(vib)   ...       0.01 
freq.    1299.83  E(vib)   ...       0.01 
freq.    1303.28  E(vib)   ...       0.01 
freq.    1319.90  E(vib)   ...       0.01 
freq.    1348.01  E(vib)   ...       0.01 
freq.    1351.61  E(vib)   ...       0.01 
freq.    1386.19  E(vib)   ...       0.00 
freq.    1428.09  E(vib)   ...       0.00 
freq.    1448.60  E(vib)   ...       0.00 
freq.    1470.62  E(vib)   ...       0.00 
freq.    1490.10  E(vib)   ...       0.00 
freq.    1492.49  E(vib)   ...       0.00 
freq.    1516.83  E(vib)   ...       0.00 
freq.    1574.82  E(vib)   ...       0.00 
freq.    1593.18  E(vib)   ...       0.00 
freq.    1613.95  E(vib)   ...       0.00 
freq.    1682.88  E(vib)   ...       0.00 
freq.    1778.76  E(vib)   ...       0.00 
freq.    1789.34  E(vib)   ...       0.00 
freq.    1806.60  E(vib)   ...       0.00 
freq.    3111.97  E(vib)   ...       0.00 
freq.    3123.91  E(vib)   ...       0.00 
freq.    3139.42  E(vib)   ...       0.00 
freq.    3167.31  E(vib)   ...       0.00 
freq.    3191.66  E(vib)   ...       0.00 
freq.    3205.95  E(vib)   ...       0.00 
freq.    3239.96  E(vib)   ...       0.00 
freq.    3382.31  E(vib)   ...       0.00 
freq.    3559.13  E(vib)   ...       0.00 
freq.    3651.31  E(vib)   ...       0.00 
freq.    3668.75  E(vib)   ...       0.00 
freq.    3803.27  E(vib)   ...       0.00 

------------
INNER ENERGY
------------

The inner energy is: U= E(el) + E(ZPE) + E(vib) + E(rot) + E(trans)
    E(el)   - is the total energy from the electronic structure calculation
              = E(kin-el) + E(nuc-el) + E(el-el) + E(nuc-nuc)
    E(ZPE)  - the the zero temperature vibrational energy from the frequency calculation
    E(vib)  - the the finite temperature correction to E(ZPE) due to population
              of excited vibrational states
    E(rot)  - is the rotational thermal energy
    E(trans)- is the translational thermal energy

Summary of contributions to the inner energy U:
Electronic energy                ...   -701.35501614 Eh
Zero point energy                ...      0.20978172 Eh     131.64 kcal/mol
Thermal vibrational correction   ...      0.01052950 Eh       6.61 kcal/mol
Thermal rotational correction    ...      0.00141627 Eh       0.89 kcal/mol
Thermal translational correction ...      0.00141627 Eh       0.89 kcal/mol
-----------------------------------------------------------------------
Total thermal energy                   -701.13187237 Eh


Summary of corrections to the electronic energy:
(perhaps to be used in another calculation)
Total thermal correction                  0.01336204 Eh       8.38 kcal/mol
Non-thermal (ZPE) correction              0.20978172 Eh     131.64 kcal/mol
-----------------------------------------------------------------------
Total correction                          0.22314377 Eh     140.02 kcal/mol


--------
ENTHALPY
--------

The enthalpy is H = U + kB*T
                kB is Boltzmann's constant
Total free energy                 ...   -701.13187237 Eh 
Thermal Enthalpy correction       ...      0.00094421 Eh       0.59 kcal/mol
-----------------------------------------------------------------------
Total Enthalpy                    ...   -701.13092816 Eh


Note: Only C1 symmetry has been detected, increase convergence thresholds 
      if your molecule has a higher symmetry. Symmetry factor of 1.0 is   
      used for the rotational entropy correction. 
 

Note: Rotational entropy computed according to Herzberg 
Infrared and Raman Spectra, Chapter V,1, Van Nostrand Reinhold, 1945 
Point Group:  C1, Symmetry Number:   1  
Rotational constants in cm-1:     0.032797     0.023563     0.016348 

Vibrational entropy computed according to the QRRHO of S. Grimme
Chem.Eur.J. 2012 18 9955


-------
ENTROPY
-------

The entropy contributions are T*S = T*(S(el)+S(vib)+S(rot)+S(trans))
     S(el)   - electronic entropy
     S(vib)  - vibrational entropy
     S(rot)  - rotational entropy
     S(trans)- translational entropy
The entropies will be listed as multiplied by the temperature to get
units of energy

Electronic entropy                ...      0.00000000 Eh      0.00 kcal/mol
Vibrational entropy               ...      0.01854707 Eh     11.64 kcal/mol
Rotational entropy                ...      0.01483559 Eh      9.31 kcal/mol
Translational entropy             ...      0.01978162 Eh     12.41 kcal/mol
-----------------------------------------------------------------------
Final entropy term                ...      0.05316428 Eh     33.36 kcal/mol

In case the symmetry of your molecule has not been determined correctly
or in case you have a reason to use a different symmetry number we print 
out the resulting rotational entropy values for sn=1,12 :
 --------------------------------------------------------
|  sn= 1 | S(rot)=       0.01483559 Eh      9.31 kcal/mol|
|  sn= 2 | S(rot)=       0.01418114 Eh      8.90 kcal/mol|
|  sn= 3 | S(rot)=       0.01379831 Eh      8.66 kcal/mol|
|  sn= 4 | S(rot)=       0.01352668 Eh      8.49 kcal/mol|
|  sn= 5 | S(rot)=       0.01331599 Eh      8.36 kcal/mol|
|  sn= 6 | S(rot)=       0.01314385 Eh      8.25 kcal/mol|
|  sn= 7 | S(rot)=       0.01299830 Eh      8.16 kcal/mol|
|  sn= 8 | S(rot)=       0.01287222 Eh      8.08 kcal/mol|
|  sn= 9 | S(rot)=       0.01276102 Eh      8.01 kcal/mol|
|  sn=10 | S(rot)=       0.01266154 Eh      7.95 kcal/mol|
|  sn=11 | S(rot)=       0.01257155 Eh      7.89 kcal/mol|
|  sn=12 | S(rot)=       0.01248939 Eh      7.84 kcal/mol|
 --------------------------------------------------------


-------------------
GIBBS FREE ENERGY
-------------------

The Gibbs free energy is G = H - T*S

Total enthalpy                    ...   -701.13092816 Eh 
Total entropy correction          ...     -0.05316428 Eh    -33.36 kcal/mol
-----------------------------------------------------------------------
Final Gibbs free energy         ...   -701.18409244 Eh

For completeness - the Gibbs free energy minus the electronic energy
G-E(el)                           ...      0.17092369 Eh    107.26 kcal/mol


Timings for individual modules:

Sum of individual times         ...     9080.493 sec (= 151.342 min)
GTO integral calculation        ...       26.748 sec (=   0.446 min)   0.3 %
SCF iterations                  ...     2886.379 sec (=  48.106 min)  31.8 %
SCF Gradient evaluation         ...      577.620 sec (=   9.627 min)   6.4 %
Geometry relaxation             ...        1.380 sec (=   0.023 min)   0.0 %
Analytical frequency calculation...     5064.018 sec (=  84.400 min)  55.8 %
CHELPG charge generation        ...      524.348 sec (=   8.739 min)   5.8 %
                             ****ORCA TERMINATED NORMALLY****
TOTAL RUN TIME: 0 days 2 hours 31 minutes 53 seconds 584 msec
