
Lmod is automatically replacing "intel/2020.1.217" with "gcc/10.3.0".


Due to MODULEPATH changes, the following have been reloaded:
  1) blis/0.8.1     2) flexiblas/3.0.4

The following have been reloaded with a version change:
  1) gcccore/.9.3.0 => gcccore/.10.3.0        3) openmpi/4.0.3 => openmpi/4.1.1
  2) libfabric/1.10.1 => libfabric/1.12.1     4) ucx/1.8.0 => ucx/1.9.0

To execute ORCA, run: 
   ${EBROOTORCA}/orca orca.inp > orca.out

                                 *****************
                                 * O   R   C   A *
                                 *****************

                                            #,                                       
                                            ###                                      
                                            ####                                     
                                            #####                                    
                                            ######                                   
                                           ########,                                 
                                     ,,################,,,,,                         
                               ,,#################################,,                 
                          ,,##########################################,,             
                       ,#########################################, ''#####,          
                    ,#############################################,,   '####,        
                  ,##################################################,,,,####,       
                ,###########''''           ''''###############################       
              ,#####''   ,,,,##########,,,,          '''####'''          '####       
            ,##' ,,,,###########################,,,                        '##       
           ' ,,###''''                  '''############,,,                           
         ,,##''                                '''############,,,,        ,,,,,,###''
      ,#''                                            '''#######################'''  
     '                                                          ''''####''''         
             ,#######,   #######,   ,#######,      ##                                
            ,#'     '#,  ##    ##  ,#'     '#,    #''#        ######   ,####,        
            ##       ##  ##   ,#'  ##            #'  '#       #        #'  '#        
            ##       ##  #######   ##           ,######,      #####,   #    #        
            '#,     ,#'  ##    ##  '#,     ,#' ,#      #,         ##   #,  ,#        
             '#######'   ##     ##  '#######'  #'      '#     #####' # '####'        



                  #######################################################
                  #                        -***-                        #
                  #          Department of theory and spectroscopy      #
                  #    Directorship and core code : Frank Neese         #
                  #        Max Planck Institute fuer Kohlenforschung    #
                  #                Kaiser Wilhelm Platz 1               #
                  #                 D-45470 Muelheim/Ruhr               #
                  #                      Germany                        #
                  #                                                     #
                  #                  All rights reserved                #
                  #                        -***-                        #
                  #######################################################


                         Program Version 5.0.2 -  RELEASE  -


 With contributions from (in alphabetic order):
   Daniel Aravena         : Magnetic Suceptibility
   Michael Atanasov       : Ab Initio Ligand Field Theory (pilot matlab implementation)
   Alexander A. Auer      : GIAO ZORA, VPT2 properties, NMR spectrum
   Ute Becker             : Parallelization
   Giovanni Bistoni       : ED, misc. LED, open-shell LED, HFLD
   Martin Brehm           : Molecular dynamics
   Dmytro Bykov           : SCF Hessian
   Vijay G. Chilkuri      : MRCI spin determinant printing, contributions to CSF-ICE
   Dipayan Datta          : RHF DLPNO-CCSD density
   Achintya Kumar Dutta   : EOM-CC, STEOM-CC
   Dmitry Ganyushin       : Spin-Orbit,Spin-Spin,Magnetic field MRCI
   Miquel Garcia          : C-PCM and meta-GGA Hessian, CC/C-PCM, Gaussian charge scheme
   Yang Guo               : DLPNO-NEVPT2, F12-NEVPT2, CIM, IAO-localization
   Andreas Hansen         : Spin unrestricted coupled pair/coupled cluster methods
   Benjamin Helmich-Paris : MC-RPA, TRAH-SCF, COSX integrals
   Lee Huntington         : MR-EOM, pCC
   Robert Izsak           : Overlap fitted RIJCOSX, COSX-SCS-MP3, EOM
   Marcus Kettner         : VPT2
   Christian Kollmar      : KDIIS, OOCD, Brueckner-CCSD(T), CCSD density, CASPT2, CASPT2-K
   Simone Kossmann        : Meta GGA functionals, TD-DFT gradient, OOMP2, MP2 Hessian
   Martin Krupicka        : Initial AUTO-CI
   Lucas Lang             : DCDCAS
   Marvin Lechner         : AUTO-CI (C++ implementation), FIC-MRCC
   Dagmar Lenk            : GEPOL surface, SMD
   Dimitrios Liakos       : Extrapolation schemes; Compound Job, initial MDCI parallelization
   Dimitrios Manganas     : Further ROCIS development; embedding schemes
   Dimitrios Pantazis     : SARC Basis sets
   Anastasios Papadopoulos: AUTO-CI, single reference methods and gradients
   Taras Petrenko         : DFT Hessian,TD-DFT gradient, ASA, ECA, R-Raman, ABS, FL, XAS/XES, NRVS
   Peter Pinski           : DLPNO-MP2, DLPNO-MP2 Gradient
   Christoph Reimann      : Effective Core Potentials
   Marius Retegan         : Local ZFS, SOC
   Christoph Riplinger    : Optimizer, TS searches, QM/MM, DLPNO-CCSD(T), (RO)-DLPNO pert. Triples
   Tobias Risthaus        : Range-separated hybrids, TD-DFT gradient, RPA, STAB
   Michael Roemelt        : Original ROCIS implementation
   Masaaki Saitow         : Open-shell DLPNO-CCSD energy and density
   Barbara Sandhoefer     : DKH picture change effects
   Avijit Sen             : IP-ROCIS
   Kantharuban Sivalingam : CASSCF convergence, NEVPT2, FIC-MRCI
   Bernardo de Souza      : ESD, SOC TD-DFT
   Georgi Stoychev        : AutoAux, RI-MP2 NMR, DLPNO-MP2 response
   Willem Van den Heuvel  : Paramagnetic NMR
   Boris Wezisla          : Elementary symmetry handling
   Frank Wennmohs         : Technical directorship


 We gratefully acknowledge several colleagues who have allowed us to
 interface, adapt or use parts of their codes:
   Stefan Grimme, W. Hujo, H. Kruse, P. Pracht,  : VdW corrections, initial TS optimization,
                  C. Bannwarth, S. Ehlert          DFT functionals, gCP, sTDA/sTD-DF
   Ed Valeev, F. Pavosevic, A. Kumar             : LibInt (2-el integral package), F12 methods
   Garnet Chan, S. Sharma, J. Yang, R. Olivares  : DMRG
   Ulf Ekstrom                                   : XCFun DFT Library
   Mihaly Kallay                                 : mrcc  (arbitrary order and MRCC methods)
   Jiri Pittner, Ondrej Demel                    : Mk-CCSD
   Frank Weinhold                                : gennbo (NPA and NBO analysis)
   Christopher J. Cramer and Donald G. Truhlar   : smd solvation model
   Lars Goerigk                                  : TD-DFT with DH, B97 family of functionals
   V. Asgeirsson, H. Jonsson                     : NEB implementation
   FAccTs GmbH                                   : IRC, NEB, NEB-TS, DLPNO-Multilevel, CI-OPT
                                                   MM, QMMM, 2- and 3-layer-ONIOM, Crystal-QMMM,
                                                   LR-CPCM, SF, NACMEs, symmetry and pop. for TD-DFT,
                                                   nearIR, NL-DFT gradient (VV10), updates on ESD,
                                                   ML-optimized integration grids
   S Lehtola, MJT Oliveira, MAL Marques          : LibXC Library
   Liviu Ungur et al                             : ANISO software


 Your calculation uses the libint2 library for the computation of 2-el integrals
 For citations please refer to: http://libint.valeyev.net

 Your ORCA version has been built with support for libXC version: 5.1.0
 For citations please refer to: https://tddft.org/programs/libxc/

 This ORCA versions uses:
   CBLAS   interface :  Fast vector & matrix operations
   LAPACKE interface :  Fast linear algebra routines
   SCALAPACK package :  Parallel linear algebra routines
   Shared memory     :  Shared parallel matrices
   BLAS/LAPACK       :  OpenBLAS 0.3.15  USE64BITINT DYNAMIC_ARCH NO_AFFINITY Zen SINGLE_THREADED
        Core in use  :  Zen
   Copyright (c) 2011-2014, The OpenBLAS Project


Your calculation utilizes the atom-pairwise dispersion correction
with the Becke-Johnson damping scheme (D3BJ)
Cite in your paper:
S.Grimme, S.Ehrlich, L.Goerigk, J Comput Chem, (2011), 32, 1456–1465 
S.Grimme, J.Antony, S.Ehrlich and H.Krieg, J.Chem.Phys., 132, (2010), 154104 
   

================================================================================

----- Orbital basis set information -----
Your calculation utilizes the basis: def2-TZVPP
   F. Weigend and R. Ahlrichs, Phys. Chem. Chem. Phys. 7, 3297 (2005).

----- AuxJ basis set information -----
Your calculation utilizes the auxiliary basis: def2/J
   F. Weigend, Phys. Chem. Chem. Phys. 8, 1057 (2006).

================================================================================
                                        WARNINGS
                       Please study these warnings very carefully!
================================================================================


WARNING: Geometry Optimization
  ===> : Switching off AutoStart
         For restart on a previous wavefunction, please use MOREAD

INFO   : the flag for use of the SHARK integral package has been found!

================================================================================
                                       INPUT FILE
================================================================================
NAME = GGG-H_tt_030_OptFreq.inp
|  1> # GGG-H_tt_030 (old 189)
|  2> ! wB97X-D3BJ Opt Freq def2-TZVPP def2/J RIJCOSX VeryTightSCF
|  3> ! PAL8 defgrid3 VeryTightOpt
|  4> 
|  5> %maxcore 4096
|  6> 
|  7> %geom
|  8>   MaxIter 300
|  9>   # MaxStep 0.1
| 10>   Calc_Hess true
| 11>   Recalc_Hess 10
| 12> end
| 13> 
| 14> %chelpg
| 15>   grid 0.1
| 16>   rmax 3.0
| 17> end
| 18> 
| 19> * xyz 1 1 
| 20>  N   -1.126333   +1.901297   -2.906765
| 21>  H   -1.821676   +2.545160   -2.500771
| 22>  C   -1.030642   +2.018338   -4.350732
| 23>  C   -2.060680   +3.082711   -4.765086
| 24>  H   -0.012528   +2.323921   -4.658680
| 25>  H   -1.250338   +1.051863   -4.842517
| 26>  O   -2.753350   +3.639838   -3.942547
| 27>  C   -0.409521   +1.053779   -2.163781
| 28>  C   -0.646113   +1.134010   -0.632627
| 29>  O   +0.410772   +0.254379   -2.669881
| 30>  N   +0.000000   +0.000000   +0.000000
| 31>  H   -1.721534   +1.150718   -0.395692
| 32>  H   -0.189660   +2.061788   -0.249975
| 33>  H   -0.470989   -0.899055   -0.097333
| 34>  C   +1.368119   +0.000000   +0.000000
| 35>  C   +2.042983   -1.347847   -0.300403
| 36>  O   +2.061905   +1.008968   +0.000000
| 37>  H   +1.371680   -2.219382   -0.304509
| 38>  H   +2.913520   -1.532336   +0.345226
| 39>  O   -2.151784   +3.361202   -6.072577
| 40>  H   -1.526695   +2.829674   -6.603409
| 41>  N   +2.510545   -1.103333   -1.719189
| 42>  H   +3.246941   -0.377205   -1.698519
| 43>  H   +2.871792   -1.943041   -2.194267
| 44>  H   +1.674776   -0.656789   -2.244150
| 45> *
| 46> 
| 47>                          ****END OF INPUT****
================================================================================

                       *****************************
                       * Geometry Optimization Run *
                       *****************************

Geometry optimization settings:
Update method            Update   .... BFGS
Choice of coordinates    CoordSys .... Z-matrix Internals
Initial Hessian          InHess   .... Almoef's Model

Convergence Tolerances:
Energy Change            TolE     ....  2.0000e-07 Eh
Max. Gradient            TolMAXG  ....  3.0000e-05 Eh/bohr
RMS Gradient             TolRMSG  ....  8.0000e-06 Eh/bohr
Max. Displacement        TolMAXD  ....  2.0000e-04 bohr
RMS Displacement         TolRMSD  ....  1.0000e-04 bohr
Strict Convergence                ....  False
------------------------------------------------------------------------------
                        ORCA OPTIMIZATION COORDINATE SETUP
------------------------------------------------------------------------------

The optimization will be done in new redundant internal coordinates
Making redundant internal coordinates   ...  (new redundants) done
Evaluating the initial hessian          ...  (Is done on the fly) done
Evaluating the coordinates              ...  done
Calculating the B-matrix                .... done
Calculating the G-matrix                .... done
Diagonalizing the G-matrix              .... done
Small eigenvalue found = 3.818e-03
Small eigenvalue found = 1.704e-02
Small eigenvalue found = 2.250e-02
Small eigenvalue found = 2.534e-02
The first mode is                       ....   44
The number of degrees of freedom        ....   69

    -----------------------------------------------------------------
                    Redundant Internal Coordinates


    -----------------------------------------------------------------
         Definition                    Initial Value    d2E/dq (diagonal element)
    -----------------------------------------------------------------
      1. B(H   1,N   0)                  1.0310         0.000000   
      2. B(C   2,N   0)                  1.4519         0.000000   
      3. B(C   3,C   2)                  1.5380         0.000000   
      4. B(H   4,C   2)                  1.1067         0.000000   
      5. B(H   5,C   2)                  1.1064         0.000000   
      6. B(O   6,C   3)                  1.2111         0.000000   
      7. B(C   7,N   0)                  1.3357         0.000000   
      8. B(C   8,C   7)                  1.5514         0.000000   
      9. B(O   9,C   7)                  1.2522         0.000000   
     10. B(N  10,C   8)                  1.4504         0.000000   
     11. B(H  11,C   8)                  1.1013         0.000000   
     12. B(H  12,C   8)                  1.1025         0.000000   
     13. B(H  13,N  10)                  1.0196         0.000000   
     14. B(C  14,N  10)                  1.3681         0.000000   
     15. B(C  15,C  14)                  1.5370         0.000000   
     16. B(O  16,C  14)                  1.2245         0.000000   
     17. B(H  17,C  15)                  1.1001         0.000000   
     18. B(H  18,C  15)                  1.0994         0.000000   
     19. B(O  19,C   3)                  1.3399         0.000000   
     20. B(H  20,O  19)                  0.9773         0.000000   
     21. B(N  21,C  15)                  1.5137         0.000000   
     22. B(H  22,N  21)                  1.0344         0.000000   
     23. B(H  23,N  21)                  1.0302         0.000000   
     24. B(H  24,N  21)                  1.0833         0.000000   
     25. A(H   1,N   0,C   2)          112.6913         0.000000   
     26. A(C   2,N   0,C   7)          124.6806         0.000000   
     27. A(H   1,N   0,C   7)          122.6267         0.000000   
     28. A(C   3,C   2,H   5)          110.5957         0.000000   
     29. A(C   3,C   2,H   4)          110.4907         0.000000   
     30. A(N   0,C   2,H   4)          111.0781         0.000000   
     31. A(N   0,C   2,C   3)          106.2356         0.000000   
     32. A(N   0,C   2,H   5)          111.0116         0.000000   
     33. A(H   4,C   2,H   5)          107.4687         0.000000   
     34. A(O   6,C   3,O  19)          121.8861         0.000000   
     35. A(C   2,C   3,O  19)          116.8883         0.000000   
     36. A(C   2,C   3,O   6)          121.2256         0.000000   
     37. A(C   8,C   7,O   9)          122.1272         0.000000   
     38. A(N   0,C   7,O   9)          122.1265         0.000000   
     39. A(N   0,C   7,C   8)          115.7428         0.000000   
     40. A(C   7,C   8,H  11)          111.2245         0.000000   
     41. A(C   7,C   8,N  10)          108.7907         0.000000   
     42. A(H  11,C   8,H  12)          108.4716         0.000000   
     43. A(N  10,C   8,H  12)          108.7917         0.000000   
     44. A(C   7,C   8,H  12)          108.8398         0.000000   
     45. A(N  10,C   8,H  11)          110.6718         0.000000   
     46. A(H  13,N  10,C  14)          117.5118         0.000000   
     47. A(C   8,N  10,C  14)          116.4536         0.000000   
     48. A(C   8,N  10,H  13)          116.2316         0.000000   
     49. A(C  15,C  14,O  16)          118.2818         0.000000   
     50. A(N  10,C  14,O  16)          124.5132         0.000000   
     51. A(N  10,C  14,C  15)          116.0451         0.000000   
     52. A(H  17,C  15,H  18)          110.6361         0.000000   
     53. A(C  14,C  15,H  18)          112.3368         0.000000   
     54. A(C  14,C  15,H  17)          115.3107         0.000000   
     55. A(H  18,C  15,N  21)          109.4477         0.000000   
     56. A(H  17,C  15,N  21)          108.2375         0.000000   
     57. A(C  14,C  15,N  21)          100.2044         0.000000   
     58. A(C   3,O  19,H  20)          111.9318         0.000000   
     59. A(H  23,N  21,H  24)          112.5231         0.000000   
     60. A(H  22,N  21,H  24)          105.6385         0.000000   
     61. A(C  15,N  21,H  24)          106.4088         0.000000   
     62. A(H  22,N  21,H  23)          109.3757         0.000000   
     63. A(C  15,N  21,H  23)          114.1344         0.000000   
     64. A(C  15,N  21,H  22)          108.3343         0.000000   
     65. D(H   4,C   2,N   0,C   7)    -61.3112         0.000000   
     66. D(H   5,C   2,N   0,C   7)     58.2048         0.000000   
     67. D(H   5,C   2,N   0,H   1)   -121.3687         0.000000   
     68. D(H   4,C   2,N   0,H   1)    119.1153         0.000000   
     69. D(C   3,C   2,N   0,H   1)     -1.0819         0.000000   
     70. D(C   3,C   2,N   0,C   7)    178.4917         0.000000   
     71. D(O   6,C   3,C   2,H   4)   -120.5082         0.000000   
     72. D(O  19,C   3,C   2,H   5)    -59.4185         0.000000   
     73. D(O  19,C   3,C   2,H   4)     59.4482         0.000000   
     74. D(O   6,C   3,C   2,H   5)    120.6251         0.000000   
     75. D(O  19,C   3,C   2,N   0)   -179.9744         0.000000   
     76. D(O   6,C   3,C   2,N   0)      0.0692         0.000000   
     77. D(O   9,C   7,N   0,H   1)    178.3393         0.000000   
     78. D(C   8,C   7,N   0,C   2)    178.1378         0.000000   
     79. D(C   8,C   7,N   0,H   1)     -2.3293         0.000000   
     80. D(O   9,C   7,N   0,C   2)     -1.1936         0.000000   
     81. D(H  12,C   8,C   7,O   9)    107.0156         0.000000   
     82. D(H  12,C   8,C   7,N   0)    -72.3158         0.000000   
     83. D(H  11,C   8,C   7,O   9)   -133.5359         0.000000   
     84. D(N  10,C   8,C   7,O   9)    -11.3841         0.000000   
     85. D(N  10,C   8,C   7,N   0)    169.2845         0.000000   
     86. D(H  11,C   8,C   7,N   0)     47.1327         0.000000   
     87. D(C  14,N  10,C   8,H  12)    -48.8698         0.000000   
     88. D(C  14,N  10,C   8,H  11)   -167.9536         0.000000   
     89. D(C  14,N  10,C   8,C   7)     69.5601         0.000000   
     90. D(H  13,N  10,C   8,H  12)    166.0088         0.000000   
     91. D(H  13,N  10,C   8,H  11)     46.9250         0.000000   
     92. D(H  13,N  10,C   8,C   7)    -75.5613         0.000000   
     93. D(O  16,C  14,N  10,C   8)     29.1557         0.000000   
     94. D(C  15,C  14,N  10,H  13)      6.3856         0.000000   
     95. D(C  15,C  14,N  10,C   8)   -138.2798         0.000000   
     96. D(O  16,C  14,N  10,H  13)    173.8211         0.000000   
     97. D(N  21,C  15,C  14,O  16)    -63.1053         0.000000   
     98. D(N  21,C  15,C  14,N  10)    105.1502         0.000000   
     99. D(H  18,C  15,C  14,O  16)     52.9796         0.000000   
    100. D(H  18,C  15,C  14,N  10)   -138.7650         0.000000   
    101. D(H  17,C  15,C  14,O  16)   -179.0105         0.000000   
    102. D(H  17,C  15,C  14,N  10)    -10.7551         0.000000   
    103. D(H  20,O  19,C   3,O   6)    179.9148         0.000000   
    104. D(H  20,O  19,C   3,C   2)     -0.0413         0.000000   
    105. D(H  24,N  21,C  15,H  18)   -164.2559         0.000000   
    106. D(H  24,N  21,C  15,H  17)     75.0890         0.000000   
    107. D(H  24,N  21,C  15,C  14)    -46.0213         0.000000   
    108. D(H  23,N  21,C  15,H  18)     71.0281         0.000000   
    109. D(H  23,N  21,C  15,H  17)    -49.6271         0.000000   
    110. D(H  23,N  21,C  15,C  14)   -170.7373         0.000000   
    111. D(H  22,N  21,C  15,H  18)    -51.0756         0.000000   
    112. D(H  22,N  21,C  15,H  17)   -171.7307         0.000000   
    113. D(H  22,N  21,C  15,C  14)     67.1590         0.000000   
    -----------------------------------------------------------------

Number of atoms                         .... 25
Number of degrees of freedom            .... 113

         *************************************************************
         *                GEOMETRY OPTIMIZATION CYCLE   1            *
         *************************************************************
---------------------------------
CARTESIAN COORDINATES (ANGSTROEM)
---------------------------------
  N     -1.126333    1.901297   -2.906765
  H     -1.821676    2.545160   -2.500771
  C     -1.030642    2.018338   -4.350732
  C     -2.060680    3.082711   -4.765086
  H     -0.012528    2.323921   -4.658680
  H     -1.250338    1.051863   -4.842517
  O     -2.753350    3.639838   -3.942547
  C     -0.409521    1.053779   -2.163781
  C     -0.646113    1.134010   -0.632627
  O      0.410772    0.254379   -2.669881
  N      0.000000    0.000000    0.000000
  H     -1.721534    1.150718   -0.395692
  H     -0.189660    2.061788   -0.249975
  H     -0.470989   -0.899055   -0.097333
  C      1.368119    0.000000    0.000000
  C      2.042983   -1.347847   -0.300403
  O      2.061905    1.008968    0.000000
  H      1.371680   -2.219382   -0.304509
  H      2.913520   -1.532336    0.345226
  O     -2.151784    3.361202   -6.072577
  H     -1.526695    2.829674   -6.603409
  N      2.510545   -1.103333   -1.719189
  H      3.246941   -0.377205   -1.698519
  H      2.871792   -1.943041   -2.194267
  H      1.674776   -0.656789   -2.244150

----------------------------
CARTESIAN COORDINATES (A.U.)
----------------------------
  NO LB      ZA    FRAG     MASS         X           Y           Z
   0 N     7.0000    0    14.007   -2.128461    3.592931   -5.492990
   1 H     1.0000    0     1.008   -3.442469    4.809655   -4.725772
   2 C     6.0000    0    12.011   -1.947631    3.814106   -8.221692
   3 C     6.0000    0    12.011   -3.894121    5.825480   -9.004708
   4 H     1.0000    0     1.008   -0.023674    4.391574   -8.803629
   5 H     1.0000    0     1.008   -2.362796    1.987733   -9.151031
   6 O     8.0000    0    15.999   -5.203077    6.878297   -7.450334
   7 C     6.0000    0    12.011   -0.773883    1.991354   -4.088954
   8 C     6.0000    0    12.011   -1.220977    2.142968   -1.195492
   9 O     8.0000    0    15.999    0.776247    0.480707   -5.045344
  10 N     7.0000    0    14.007    0.000000    0.000000    0.000000
  11 H     1.0000    0     1.008   -3.253228    2.174542   -0.747750
  12 H     1.0000    0     1.008   -0.358405    3.896215   -0.472384
  13 H     1.0000    0     1.008   -0.890040   -1.698968   -0.183933
  14 C     6.0000    0    12.011    2.585370    0.000000    0.000000
  15 C     6.0000    0    12.011    3.860678   -2.547062   -0.567679
  16 O     8.0000    0    15.999    3.896436    1.906673    0.000000
  17 H     1.0000    0     1.008    2.592100   -4.194024   -0.575439
  18 H     1.0000    0     1.008    5.505755   -2.895695    0.652383
  19 O     8.0000    0    15.999   -4.066282    6.351751  -11.475507
  20 H     1.0000    0     1.008   -2.885035    5.347309  -12.478635
  21 N     7.0000    0    14.007    4.744242   -2.084997   -3.248796
  22 H     1.0000    0     1.008    6.135829   -0.712814   -3.209736
  23 H     1.0000    0     1.008    5.426900   -3.671815   -4.146564
  24 H     1.0000    0     1.008    3.164868   -1.241151   -4.240829

--------------------------------
INTERNAL COORDINATES (ANGSTROEM)
--------------------------------
 N      0   0   0     0.000000000000     0.00000000     0.00000000
 H      1   0   0     1.030966817339     0.00000000     0.00000000
 C      1   2   0     1.451859518084   112.69129286     0.00000000
 C      3   1   2     1.538036866232   106.23560740   358.91810245
 H      3   1   2     1.106692846995   111.07811771   119.11528155
 H      3   1   2     1.106432439992   111.01163285   238.63127159
 O      4   3   1     1.211095631876   121.22557436     0.06917448
 C      1   2   3     1.335713827107   122.62667255   180.41637368
 C      8   1   2     1.551401095636   115.74275989   357.67066246
 O      8   1   2     1.252221296676   122.12650428   178.33926510
 N      9   8   1     1.450399120931   108.79072124   169.28447615
 H      9   8   1     1.101339038957   111.22453241    47.13269465
 H      9   8   1     1.102517079957   108.83979323   287.68417257
 H     11   9   8     1.019609848930   116.23164249   284.43871871
 C     11   9   8     1.368119000000   116.45357656    69.56014649
 C     15  11   9     1.537001924629   116.04507986   221.72022418
 O     15  11   9     1.224481702117   124.51316928    29.15571526
 H     16  15  11     1.100108100720   115.31069034   349.24492139
 H     16  15  11     1.099412418127   112.33678082   221.23497375
 O      4   3   1     1.339921598818   116.88826230   180.02558286
 H     20   4   3     0.977261932610   111.93177466   359.95868262
 N     16  15  11     1.513722244613   100.20441830   105.15015101
 H     22  16  15     1.034392667269   108.33426044    67.15900828
 H     22  16  15     1.030198052006   114.13440772   189.26267102
 H     22  16  15     1.083279934651   106.40875935   313.97868625

---------------------------
INTERNAL COORDINATES (A.U.)
---------------------------
 N      0   0   0     0.000000000000     0.00000000     0.00000000
 H      1   0   0     1.948244937931     0.00000000     0.00000000
 C      1   2   0     2.743616874106   112.69129286     0.00000000
 C      3   1   2     2.906468461053   106.23560740   358.91810245
 H      3   1   2     2.091346395189   111.07811771   119.11528155
 H      3   1   2     2.090854297271   111.01163285   238.63127159
 O      4   3   1     2.288639066235   121.22557436     0.06917448
 C      1   2   3     2.524133326523   122.62667255   180.41637368
 C      8   1   2     2.931723194618   115.74275989   357.67066246
 O      8   1   2     2.366355309781   122.12650428   178.33926510
 N      9   8   1     2.740857123440   108.79072124   169.28447615
 H      9   8   1     2.081229164224   111.22453241    47.13269465
 H      9   8   1     2.083455339089   108.83979323   287.68417257
 H     11   9   8     1.926783377926   116.23164249   284.43871871
 C     11   9   8     2.585370228614   116.45357656    69.56014649
 C     15  11   9     2.904512704859   116.04507986   221.72022418
 O     15  11   9     2.313935072999   124.51316928    29.15571526
 H     16  15  11     2.078903028069   115.31069034   349.24492139
 H     16  15  11     2.077588378491   112.33678082   221.23497375
 O      4   3   1     2.532084862691   116.88826230   180.02558286
 H     20   4   3     1.846757413740   111.93177466   359.95868262
 N     16  15  11     2.860520485143   100.20441830   105.15015101
 H     22  16  15     1.954718856075   108.33426044    67.15900828
 H     22  16  15     1.946792181991   114.13440772   189.26267102
 H     22  16  15     2.047102402863   106.40875935   313.97868625

---------------------
BASIS SET INFORMATION
---------------------
There are 4 groups of distinct atoms

 Group   1 Type N   : 11s6p2d1f contracted to 5s3p2d1f pattern {62111/411/11/1}
 Group   2 Type H   : 5s2p1d contracted to 3s2p1d pattern {311/11/1}
 Group   3 Type C   : 11s6p2d1f contracted to 5s3p2d1f pattern {62111/411/11/1}
 Group   4 Type O   : 11s6p2d1f contracted to 5s3p2d1f pattern {62111/411/11/1}

Atom   0N    basis set group =>   1
Atom   1H    basis set group =>   2
Atom   2C    basis set group =>   3
Atom   3C    basis set group =>   3
Atom   4H    basis set group =>   2
Atom   5H    basis set group =>   2
Atom   6O    basis set group =>   4
Atom   7C    basis set group =>   3
Atom   8C    basis set group =>   3
Atom   9O    basis set group =>   4
Atom  10N    basis set group =>   1
Atom  11H    basis set group =>   2
Atom  12H    basis set group =>   2
Atom  13H    basis set group =>   2
Atom  14C    basis set group =>   3
Atom  15C    basis set group =>   3
Atom  16O    basis set group =>   4
Atom  17H    basis set group =>   2
Atom  18H    basis set group =>   2
Atom  19O    basis set group =>   4
Atom  20H    basis set group =>   2
Atom  21N    basis set group =>   1
Atom  22H    basis set group =>   2
Atom  23H    basis set group =>   2
Atom  24H    basis set group =>   2
---------------------------------
AUXILIARY/J BASIS SET INFORMATION
---------------------------------
There are 4 groups of distinct atoms

 Group   1 Type N   : 12s5p4d2f1g contracted to 6s4p3d1f1g pattern {711111/2111/211/2/1}
 Group   2 Type H   : 5s2p1d contracted to 3s1p1d pattern {311/2/1}
 Group   3 Type C   : 12s5p4d2f1g contracted to 6s4p3d1f1g pattern {711111/2111/211/2/1}
 Group   4 Type O   : 12s5p4d2f1g contracted to 6s4p3d1f1g pattern {711111/2111/211/2/1}

Atom   0N    basis set group =>   1
Atom   1H    basis set group =>   2
Atom   2C    basis set group =>   3
Atom   3C    basis set group =>   3
Atom   4H    basis set group =>   2
Atom   5H    basis set group =>   2
Atom   6O    basis set group =>   4
Atom   7C    basis set group =>   3
Atom   8C    basis set group =>   3
Atom   9O    basis set group =>   4
Atom  10N    basis set group =>   1
Atom  11H    basis set group =>   2
Atom  12H    basis set group =>   2
Atom  13H    basis set group =>   2
Atom  14C    basis set group =>   3
Atom  15C    basis set group =>   3
Atom  16O    basis set group =>   4
Atom  17H    basis set group =>   2
Atom  18H    basis set group =>   2
Atom  19O    basis set group =>   4
Atom  20H    basis set group =>   2
Atom  21N    basis set group =>   1
Atom  22H    basis set group =>   2
Atom  23H    basis set group =>   2
Atom  24H    basis set group =>   2


           ************************************************************
           *        Program running with 8 parallel MPI-processes     *
           *              working on a common directory               *
           ************************************************************
------------------------------------------------------------------------------
                           ORCA GTO INTEGRAL CALCULATION
                           -- RI-GTO INTEGRALS CHOSEN --
------------------------------------------------------------------------------
------------------------------------------------------------------------------
                   ___                                                        
                  /   \      - P O W E R E D   B Y -                         
                 /     \                                                     
                 |  |  |   _    _      __       _____    __    __             
                 |  |  |  | |  | |    /  \     |  _  \  |  |  /  |          
                  \  \/   | |  | |   /    \    | | | |  |  | /  /          
                 / \  \   | |__| |  /  /\  \   | |_| |  |  |/  /          
                |  |  |   |  __  | /  /__\  \  |    /   |      \           
                |  |  |   | |  | | |   __   |  |    \   |  |\   \          
                \     /   | |  | | |  |  |  |  | |\  \  |  | \   \       
                 \___/    |_|  |_| |__|  |__|  |_| \__\ |__|  \__/        
                                                                              
                      - O R C A' S   B I G   F R I E N D -                    
                                      &                                       
                       - I N T E G R A L  F E E D E R -                       
                                                                              
 v1 FN, 2020, v2 2021                                                         
------------------------------------------------------------------------------


Reading SHARK input file GGG-H_tt_030_OptFreq.SHARKINP.tmp ... ok
----------------------
SHARK INTEGRAL PACKAGE
----------------------

Number of atoms                             ...     25
Number of basis functions                   ...    571
Number of shells                            ...    215
Maximum angular momentum                    ...      3
Integral batch strategy                     ... SHARK/LIBINT Hybrid
RI-J (if used) integral strategy            ... SPLIT-RIJ (Revised 2003 algorithm where possible)
Printlevel                                  ...      1
Contraction scheme used                     ... SEGMENTED contraction
Coulomb Range Separation                    ... NOT USED
Exchange Range Separation                   ... Long Range
   Mu parameter                             ...  0.300000
   Scaling (regular/separated)              ...  0.167000  0.833000
Finite Nucleus Model                        ... NOT USED
Auxiliary Coulomb fitting basis             ... AVAILABLE
   # of basis functions in Aux-J            ...    769
   # of shells in Aux-J                     ...    255
   Maximum angular momentum in Aux-J        ...      4
Auxiliary J/K fitting basis                 ... NOT available
Auxiliary Correlation fitting basis         ... NOT available
Auxiliary 'external' fitting basis          ... NOT available
Integral threshold                          ...     1.000000e-12
Primitive cut-off                           ...     1.000000e-14
Primitive pair pre-selection threshold      ...     1.000000e-14

Calculating pre-screening integrals         ... done (  0.0 sec) Dimension = 215
Organizing shell pair data                  ... done (  0.1 sec)
Shell pair information
Total number of shell pairs                 ...     23220
Shell pairs after pre-screening             ...     18390
Total number of primitive shell pairs       ...     63868
Primitive shell pairs kept                  ...     37087
          la=0 lb=0:   4074 shell pairs
          la=1 lb=0:   5200 shell pairs
          la=1 lb=1:   1715 shell pairs
          la=2 lb=0:   2893 shell pairs
          la=2 lb=1:   1895 shell pairs
          la=2 lb=2:    544 shell pairs
          la=3 lb=0:    999 shell pairs
          la=3 lb=1:    648 shell pairs
          la=3 lb=2:    356 shell pairs
          la=3 lb=3:     66 shell pairs

Calculating one electron integrals          ... done (  0.0 sec)
Calculating RI/J V-Matrix + Cholesky decomp.... done (  0.2 sec)
Calculating Nuclear repulsion               ... done (  0.0 sec) ENN=    834.031857493614 Eh

SHARK setup successfully completed in   1.3 seconds

Maximum memory used throughout the entire GTOINT-calculation: 30.3 MB


           ************************************************************
           *        Program running with 8 parallel MPI-processes     *
           *              working on a common directory               *
           ************************************************************
-------------------------------------------------------------------------------
                                 ORCA SCF
-------------------------------------------------------------------------------

------------
SCF SETTINGS
------------
Hamiltonian:
 Density Functional     Method          .... DFT(GTOs)
 Exchange Functional    Exchange        .... WB97X-V
 Correlation Functional Correlation     .... WB97X-V
 Gradients option       PostSCFGGA      .... off
 Hybrid DFT is turned on
   Fraction HF Exchange ScalHFX         ....  0.167000
   Scaling of DF-GGA-X  ScalDFX         ....  0.000000
   Scaling of DF-GGA-C  ScalDFC         ....  1.000000
   Scaling of DF-LDA-C  ScalLDAC        ....  1.000000
   Perturbative correction              ....  0.000000
   Density functional embedding theory  .... OFF
 Long-range corrected/Screened/Range-Separated Hybrid DFT is turned on
   Amount of maximum screened exact exchange              ....  0.833000
   Range separation parameter mu (erf(mu*r12)/r12)        ....  0.300000
 RI-approximation to the Coulomb term is turned on
   Number of AuxJ basis functions       .... 769
   RIJ-COSX (HFX calculated with COS-X)).... on


General Settings:
 Integral files         IntName         .... GGG-H_tt_030_OptFreq
 Hartree-Fock type      HFTyp           .... RHF
 Total Charge           Charge          ....    1
 Multiplicity           Mult            ....    1
 Number of Electrons    NEL             ....  100
 Basis Dimension        Dim             ....  571
 Nuclear Repulsion      ENuc            ....    834.0318574936 Eh

Convergence Acceleration:
 DIIS                   CNVDIIS         .... on
   Start iteration      DIISMaxIt       ....    12
   Startup error        DIISStart       ....  0.200000
   # of expansion vecs  DIISMaxEq       ....     5
   Bias factor          DIISBfac        ....   1.050
   Max. coefficient     DIISMaxC        ....  10.000
 Trust-Rad. Augm. Hess. CNVTRAH         .... auto
   Auto Start mean grad. ratio tolernc. ....  1.125000
   Auto Start start iteration           ....    20
   Auto Start num. interpolation iter.  ....    10
   Max. Number of Micro iterations      ....    16
   Max. Number of Macro iterations      .... Maxiter - #DIIS iter
   Number of Davidson start vectors     ....     2
   Converg. threshold I  (grad. norm)   ....   2.000e-06
   Converg. threshold II (energy diff.) ....   1.000e-09
   Grad. Scal. Fac. for Micro threshold ....   0.100
   Minimum threshold for Micro iter.    ....   0.010
   NR start threshold (gradient norm)   ....   0.001
   Initial trust radius                 ....   0.400
   Minimum AH scaling param. (alpha)    ....   1.000
   Maximum AH scaling param. (alpha)    .... 1000.000
   Orbital update algorithm             .... Taylor
   White noise on init. David. guess    .... on
   Maximum white noise                  ....   0.010
   Quad. conv. algorithm                .... NR
 SOSCF                  CNVSOSCF        .... on
   Start iteration      SOSCFMaxIt      ....   150
   Startup grad/error   SOSCFStart      ....  0.003300
 Level Shifting         CNVShift        .... on
   Level shift para.    LevelShift      ....    0.2500
   Turn off err/grad.   ShiftErr        ....    0.0010
 Zerner damping         CNVZerner       .... off
 Static damping         CNVDamp         .... on
   Fraction old density DampFac         ....    0.7000
   Max. Damping (<1)    DampMax         ....    0.9800
   Min. Damping (>=0)   DampMin         ....    0.0000
   Turn off err/grad.   DampErr         ....    0.1000
 Fernandez-Rico         CNVRico         .... off

SCF Procedure:
 Maximum # iterations   MaxIter         ....   125
 SCF integral mode      SCFMode         .... Direct
   Integral package                     .... SHARK and LIBINT hybrid scheme
 Reset frequency        DirectResetFreq ....    20
 Integral Threshold     Thresh          ....  1.000e-12 Eh
 Primitive CutOff       TCut            ....  1.000e-14 Eh

Convergence Tolerance:
 Convergence Check Mode ConvCheckMode   .... Total+1el-Energy
 Convergence forced     ConvForced      .... 0
 Energy Change          TolE            ....  1.000e-09 Eh
 1-El. energy change                    ....  1.000e-06 Eh
 Orbital Gradient       TolG            ....  2.000e-06
 Orbital Rotation angle TolX            ....  2.000e-06
 DIIS Error             TolErr          ....  1.000e-08


Diagonalization of the overlap matrix:
Smallest eigenvalue                        ... 1.339e-04
Time for diagonalization                   ...    0.052 sec
Threshold for overlap eigenvalues          ... 1.000e-08
Number of eigenvalues below threshold      ... 0
Time for construction of square roots      ...    0.270 sec
Total time needed                          ...    0.343 sec

Time for model grid setup =    0.297 sec

------------------------------
INITIAL GUESS: MODEL POTENTIAL
------------------------------
Loading Hartree-Fock densities                     ... done
Calculating cut-offs                               ... done
Initializing the effective Hamiltonian             ... done
Setting up the integral package (SHARK)            ... done
Starting the Coulomb interaction                   ... done (   0.3 sec)
Reading the grid                                   ... done
Mapping shells                                     ... done
Starting the XC term evaluation                    ... done (   0.1 sec)
  promolecular density results
     # of electrons  =    100.994951885
     EX              =    -58.971254441
     EC              =     -4.267545168
     EX+EC           =    -63.238799609
Transforming the Hamiltonian                       ... done (   0.0 sec)
Diagonalizing the Hamiltonian                      ... done (   0.0 sec)
Back transforming the eigenvectors                 ... done (   0.0 sec)
Now organizing SCF variables                       ... done
                      ------------------
                      INITIAL GUESS DONE (   0.8 sec)
                      ------------------
-------------------
DFT GRID GENERATION
-------------------

General Integration Accuracy     IntAcc      ... 4.959
Radial Grid Type                 RadialGrid  ... OptM3 with GC (2021)
Angular Grid (max. ang.)         AngularGrid ... 6 (Lebedev-590)
Angular grid pruning method      GridPruning ... 4 (adaptive)
Weight generation scheme         WeightScheme... Becke
Basis function cutoff            BFCut       ... 1.0000e-12
Integration weight cutoff        WCut        ... 1.0000e-14
Angular grids for H and He will be reduced by one unit
Partially contracted basis set               ... off
Rotationally invariant grid construction     ... off

Total number of grid points                  ...   289351
Total number of batches                      ...     4533
Average number of points per batch           ...       63
Average number of grid points per atom       ...    11574
Time for grid setup =    3.307 sec

--------------------
COSX GRID GENERATION
--------------------

GRIDX 1
-------
General Integration Accuracy     IntAcc      ... 4.020
Radial Grid Type                 RadialGrid  ... OptM3 with GC (2021)
Angular Grid (max. ang.)         AngularGrid ... 2 (Lebedev-110)
Angular grid pruning method      GridPruning ... 4 (adaptive)
Weight generation scheme         WeightScheme... Becke
Basis function cutoff            BFCut       ... 1.0000e-12
Integration weight cutoff        WCut        ... 1.0000e-14
Angular grids for H and He will be reduced by one unit
Partially contracted basis set               ... on
Rotationally invariant grid construction     ... off

Total number of grid points                  ...    32270
Total number of batches                      ...      517
Average number of points per batch           ...       62
Average number of grid points per atom       ...     1291
UseSFitting                                  ... on

GRIDX 2
-------
General Integration Accuracy     IntAcc      ... 4.338
Radial Grid Type                 RadialGrid  ... OptM3 with GC (2021)
Angular Grid (max. ang.)         AngularGrid ... 3 (Lebedev-194)
Angular grid pruning method      GridPruning ... 4 (adaptive)
Weight generation scheme         WeightScheme... Becke
Basis function cutoff            BFCut       ... 1.0000e-12
Integration weight cutoff        WCut        ... 1.0000e-14
Angular grids for H and He will be reduced by one unit
Partially contracted basis set               ... on
Rotationally invariant grid construction     ... off

Total number of grid points                  ...    70816
Total number of batches                      ...     1122
Average number of points per batch           ...       63
Average number of grid points per atom       ...     2833
UseSFitting                                  ... on

GRIDX 3
-------
General Integration Accuracy     IntAcc      ... 4.871
Radial Grid Type                 RadialGrid  ... OptM3 with GC (2021)
Angular Grid (max. ang.)         AngularGrid ... 4 (Lebedev-302)
Angular grid pruning method      GridPruning ... 4 (adaptive)
Weight generation scheme         WeightScheme... Becke
Basis function cutoff            BFCut       ... 1.0000e-12
Integration weight cutoff        WCut        ... 1.0000e-14
Angular grids for H and He will be reduced by one unit
Partially contracted basis set               ... on
Rotationally invariant grid construction     ... off

Total number of grid points                  ...   134159
Total number of batches                      ...     2110
Average number of points per batch           ...       63
Average number of grid points per atom       ...     5366
UseSFitting                                  ... on

Time for X-Grid setup             =    2.334 sec

--------------
SCF ITERATIONS
--------------
ITER       Energy         Delta-E        Max-DP      RMS-DP      [F,P]     Damp
               ***  Starting incremental Fock matrix formation  ***
  0   -701.1553347349   0.000000000000 0.07471840  0.00049714  0.3428448 0.7000
  1   -701.2027872327  -0.047452497734 0.06913618  0.00045340  0.2343904 0.7000
                               ***Turning on DIIS***
  2   -701.2304908121  -0.027703579459 0.05474838  0.00035388  0.1627781 0.7000
  3   -701.2487288568  -0.018238044730 0.04296360  0.00028233  0.1121938 0.7000
  4   -701.2615278709  -0.012799014063 0.10863278  0.00073974  0.0774309 0.0000
                      *** Initiating the SOSCF procedure ***
                           *** Shutting down DIIS ***
                      *** Re-Reading the Fockian *** 
                      *** Removing any level shift *** 
ITER      Energy       Delta-E        Grad      Rot      Max-DP    RMS-DP
  5   -701.29237562  -0.0308477497  0.001472  0.001472  0.006529  0.000070
               *** Restarting incremental Fock matrix formation ***
  6   -701.29250585  -0.0001302311  0.000877  0.002025  0.003560  0.000042
  7   -701.29254273  -0.0000368758  0.000565  0.001942  0.002175  0.000030
  8   -701.29255181  -0.0000090830  0.000311  0.000455  0.000786  0.000010
  9   -701.29255400  -0.0000021934  0.000089  0.000090  0.000404  0.000005
 10   -701.29255421  -0.0000002110  0.000033  0.000077  0.000130  0.000002
 11   -701.29255435  -0.0000001307  0.000010  0.000031  0.000015  0.000000
 12   -701.29255435  -0.0000000044  0.000006  0.000016  0.000018  0.000000
 13   -701.29255435  -0.0000000018  0.000002  0.000009  0.000006  0.000000
 14   -701.29255435   0.0000000000  0.000001  0.000003  0.000002  0.000000
                  ***Gradient check signals convergence***
              ***Rediagonalizing the Fockian in SOSCF/NRSCF***

               *****************************************************
               *                     SUCCESS                       *
               *           SCF CONVERGED AFTER  15 CYCLES          *
               *****************************************************

Old exchange energy                            =    -27.829789940 Eh
New exchange energy                            =    -27.829788309 Eh
Exchange energy change after final integration =      0.000001631 Eh
Total energy after final integration           =   -701.292552720 Eh
Final COS-X integration done in                =    30.112 sec

----------------
TOTAL SCF ENERGY
----------------

Total Energy       :         -701.29255272 Eh          -19083.14053 eV

Components:
Nuclear Repulsion  :          834.03185749 Eh           22695.16064 eV
Electronic Energy  :        -1535.32441021 Eh          -41778.30117 eV
One Electron Energy:        -2596.57068702 Eh          -70656.28049 eV
Two Electron Energy:         1061.24627680 Eh           28877.97932 eV
Max COSX asymmetry :            0.00000103 Eh               0.00003 eV

Virial components:
Potential Energy   :        -1399.24525868 Eh          -38075.39920 eV
Kinetic Energy     :          697.95270596 Eh           18992.25868 eV
Virial Ratio       :            2.00478520


DFT components:
N(Alpha)           :       49.999999072936 electrons
N(Beta)            :       49.999999072936 electrons
N(Total)           :       99.999998145871 electrons
E(X)               :      -60.044324780230 Eh       
E(C)               :       -4.265063967463 Eh       
E(XC)              :      -64.309388747693 Eh       
DFET-embed. en.    :        0.000000000000 Eh       

---------------
SCF CONVERGENCE
---------------

  Last Energy change         ...    4.8885e-12  Tolerance :   1.0000e-09
  Last MAX-Density change    ...    2.1094e-15  Tolerance :   1.0000e-08
  Last RMS-Density change    ...    1.4820e-17  Tolerance :   1.0000e-09
  Last Orbital Gradient      ...    3.1736e-07  Tolerance :   2.0000e-06
  Last Orbital Rotation      ...    8.6024e-07  Tolerance :   2.0000e-06

             **** THE GBW FILE WAS UPDATED (GGG-H_tt_030_OptFreq.gbw) ****
             **** DENSITY GGG-H_tt_030_OptFreq.scfp WAS UPDATED ****
             **** ENERGY FILE WAS UPDATED (GGG-H_tt_030_OptFreq.en.tmp) ****
             **** THE GBW FILE WAS UPDATED (GGG-H_tt_030_OptFreq.gbw) ****
             **** DENSITY GGG-H_tt_030_OptFreq.scfp WAS UPDATED ****
----------------
ORBITAL ENERGIES
----------------

  NO   OCC          E(Eh)            E(eV) 
   0   2.0000     -19.389162      -527.6059 
   1   2.0000     -19.353243      -526.6285 
   2   2.0000     -19.347234      -526.4650 
   3   2.0000     -19.328422      -525.9531 
   4   2.0000     -14.690828      -399.7578 
   5   2.0000     -14.599402      -397.2699 
   6   2.0000     -14.594212      -397.1287 
   7   2.0000     -10.547256      -287.0054 
   8   2.0000     -10.545072      -286.9460 
   9   2.0000     -10.540464      -286.8206 
  10   2.0000     -10.511602      -286.0352 
  11   2.0000     -10.474734      -285.0320 
  12   2.0000     -10.469551      -284.8910 
  13   2.0000      -1.364412       -37.1275 
  14   2.0000      -1.347878       -36.6776 
  15   2.0000      -1.329667       -36.1821 
  16   2.0000      -1.284874       -34.9632 
  17   2.0000      -1.281149       -34.8618 
  18   2.0000      -1.220936       -33.2234 
  19   2.0000      -1.213283       -33.0151 
  20   2.0000      -1.056030       -28.7360 
  21   2.0000      -1.029496       -28.0140 
  22   2.0000      -0.978798       -26.6345 
  23   2.0000      -0.887375       -24.1467 
  24   2.0000      -0.881032       -23.9741 
  25   2.0000      -0.864320       -23.5194 
  26   2.0000      -0.861573       -23.4446 
  27   2.0000      -0.844187       -22.9715 
  28   2.0000      -0.818420       -22.2703 
  29   2.0000      -0.792395       -21.5622 
  30   2.0000      -0.766923       -20.8690 
  31   2.0000      -0.755212       -20.5504 
  32   2.0000      -0.746640       -20.3171 
  33   2.0000      -0.737077       -20.0569 
  34   2.0000      -0.733803       -19.9678 
  35   2.0000      -0.704330       -19.1658 
  36   2.0000      -0.699016       -19.0212 
  37   2.0000      -0.690794       -18.7974 
  38   2.0000      -0.681268       -18.5383 
  39   2.0000      -0.667118       -18.1532 
  40   2.0000      -0.656297       -17.8587 
  41   2.0000      -0.638646       -17.3784 
  42   2.0000      -0.625057       -17.0087 
  43   2.0000      -0.621505       -16.9120 
  44   2.0000      -0.554808       -15.0971 
  45   2.0000      -0.553932       -15.0732 
  46   2.0000      -0.536873       -14.6090 
  47   2.0000      -0.525532       -14.3005 
  48   2.0000      -0.518898       -14.1199 
  49   2.0000      -0.517631       -14.0855 
  50   0.0000      -0.085333        -2.3220 
  51   0.0000      -0.063213        -1.7201 
  52   0.0000      -0.055215        -1.5025 
  53   0.0000      -0.031525        -0.8578 
  54   0.0000      -0.028608        -0.7785 
  55   0.0000      -0.020680        -0.5627 
  56   0.0000      -0.009852        -0.2681 
  57   0.0000      -0.001498        -0.0408 
  58   0.0000       0.013313         0.3623 
  59   0.0000       0.026437         0.7194 
  60   0.0000       0.036439         0.9916 
  61   0.0000       0.047635         1.2962 
  62   0.0000       0.061584         1.6758 
  63   0.0000       0.068874         1.8741 
  64   0.0000       0.076909         2.0928 
  65   0.0000       0.080294         2.1849 
  66   0.0000       0.087573         2.3830 
  67   0.0000       0.102376         2.7858 
  68   0.0000       0.112563         3.0630 
  69   0.0000       0.119597         3.2544 
  70   0.0000       0.120351         3.2749 
  71   0.0000       0.126975         3.4552 
  72   0.0000       0.139743         3.8026 
  73   0.0000       0.153247         4.1700 
  74   0.0000       0.157201         4.2777 
  75   0.0000       0.172709         4.6997 
  76   0.0000       0.176436         4.8011 
  77   0.0000       0.183507         4.9935 
  78   0.0000       0.202726         5.5165 
  79   0.0000       0.207400         5.6436 
  80   0.0000       0.225933         6.1480 
  81   0.0000       0.235285         6.4024 
  82   0.0000       0.244308         6.6480 
  83   0.0000       0.250947         6.8286 
  84   0.0000       0.253474         6.8974 
  85   0.0000       0.264351         7.1934 
  86   0.0000       0.268932         7.3180 
  87   0.0000       0.282321         7.6824 
  88   0.0000       0.290759         7.9120 
  89   0.0000       0.292651         7.9634 
  90   0.0000       0.301712         8.2100 
  91   0.0000       0.310488         8.4488 
  92   0.0000       0.315732         8.5915 
  93   0.0000       0.322836         8.7848 
  94   0.0000       0.327018         8.8986 
  95   0.0000       0.327836         8.9209 
  96   0.0000       0.341580         9.2949 
  97   0.0000       0.346820         9.4375 
  98   0.0000       0.354238         9.6393 
  99   0.0000       0.358681         9.7602 
 100   0.0000       0.361841         9.8462 
 101   0.0000       0.364583         9.9208 
 102   0.0000       0.372546        10.1375 
 103   0.0000       0.378318        10.2946 
 104   0.0000       0.385270        10.4837 
 105   0.0000       0.386514        10.5176 
 106   0.0000       0.397443        10.8150 
 107   0.0000       0.402083        10.9412 
 108   0.0000       0.410757        11.1773 
 109   0.0000       0.423039        11.5115 
 110   0.0000       0.440463        11.9856 
 111   0.0000       0.443087        12.0570 
 112   0.0000       0.447370        12.1736 
 113   0.0000       0.462880        12.5956 
 114   0.0000       0.465289        12.6612 
 115   0.0000       0.477549        12.9948 
 116   0.0000       0.491955        13.3868 
 117   0.0000       0.499615        13.5952 
 118   0.0000       0.503261        13.6944 
 119   0.0000       0.513266        13.9667 
 120   0.0000       0.519269        14.1300 
 121   0.0000       0.530848        14.4451 
 122   0.0000       0.540221        14.7002 
 123   0.0000       0.553036        15.0489 
 124   0.0000       0.565655        15.3923 
 125   0.0000       0.581995        15.8369 
 126   0.0000       0.585406        15.9297 
 127   0.0000       0.593762        16.1571 
 128   0.0000       0.597675        16.2636 
 129   0.0000       0.613307        16.6889 
 130   0.0000       0.624313        16.9884 
 131   0.0000       0.639653        17.4059 
 132   0.0000       0.647787        17.6272 
 133   0.0000       0.655658        17.8414 
 134   0.0000       0.674763        18.3612 
 135   0.0000       0.683565        18.6007 
 136   0.0000       0.699999        19.0479 
 137   0.0000       0.706342        19.2205 
 138   0.0000       0.720811        19.6143 
 139   0.0000       0.732484        19.9319 
 140   0.0000       0.740354        20.1460 
 141   0.0000       0.745489        20.2858 
 142   0.0000       0.756551        20.5868 
 143   0.0000       0.765518        20.8308 
 144   0.0000       0.768688        20.9171 
 145   0.0000       0.778174        21.1752 
 146   0.0000       0.801607        21.8128 
 147   0.0000       0.826967        22.5029 
 148   0.0000       0.828723        22.5507 
 149   0.0000       0.834256        22.7013 
 150   0.0000       0.851922        23.1820 
 151   0.0000       0.862707        23.4754 
 152   0.0000       0.871011        23.7014 
 153   0.0000       0.884104        24.0577 
 154   0.0000       0.889332        24.2000 
 155   0.0000       0.901437        24.5293 
 156   0.0000       0.905552        24.6413 
 157   0.0000       0.915218        24.9044 
 158   0.0000       0.928197        25.2575 
 159   0.0000       0.930744        25.3268 
 160   0.0000       0.959690        26.1145 
 161   0.0000       0.976454        26.5707 
 162   0.0000       0.978085        26.6150 
 163   0.0000       0.982780        26.7428 
 164   0.0000       0.989035        26.9130 
 165   0.0000       0.996976        27.1291 
 166   0.0000       0.997425        27.1413 
 167   0.0000       1.013880        27.5891 
 168   0.0000       1.025330        27.9006 
 169   0.0000       1.037665        28.2363 
 170   0.0000       1.047874        28.5141 
 171   0.0000       1.058221        28.7957 
 172   0.0000       1.070535        29.1307 
 173   0.0000       1.082055        29.4442 
 174   0.0000       1.089172        29.6379 
 175   0.0000       1.093938        29.7676 
 176   0.0000       1.099949        29.9311 
 177   0.0000       1.114602        30.3299 
 178   0.0000       1.119674        30.4679 
 179   0.0000       1.134997        30.8848 
 180   0.0000       1.158070        31.5127 
 181   0.0000       1.169324        31.8189 
 182   0.0000       1.180256        32.1164 
 183   0.0000       1.184530        32.2327 
 184   0.0000       1.194228        32.4966 
 185   0.0000       1.200504        32.6674 
 186   0.0000       1.208898        32.8958 
 187   0.0000       1.232045        33.5257 
 188   0.0000       1.237340        33.6697 
 189   0.0000       1.249126        33.9905 
 190   0.0000       1.260025        34.2870 
 191   0.0000       1.267070        34.4787 
 192   0.0000       1.294556        35.2267 
 193   0.0000       1.309186        35.6248 
 194   0.0000       1.327747        36.1298 
 195   0.0000       1.334550        36.3150 
 196   0.0000       1.360016        37.0079 
 197   0.0000       1.360588        37.0235 
 198   0.0000       1.367858        37.2213 
 199   0.0000       1.381746        37.5992 
 200   0.0000       1.384538        37.6752 
 201   0.0000       1.396856        38.0104 
 202   0.0000       1.407030        38.2872 
 203   0.0000       1.423218        38.7277 
 204   0.0000       1.428572        38.8734 
 205   0.0000       1.441705        39.2308 
 206   0.0000       1.448963        39.4283 
 207   0.0000       1.454063        39.5671 
 208   0.0000       1.464785        39.8588 
 209   0.0000       1.469111        39.9765 
 210   0.0000       1.490979        40.5716 
 211   0.0000       1.495619        40.6979 
 212   0.0000       1.498484        40.7758 
 213   0.0000       1.522591        41.4318 
 214   0.0000       1.525984        41.5241 
 215   0.0000       1.547626        42.1130 
 216   0.0000       1.554528        42.3009 
 217   0.0000       1.562048        42.5055 
 218   0.0000       1.579985        42.9936 
 219   0.0000       1.594124        43.3783 
 220   0.0000       1.599894        43.5353 
 221   0.0000       1.617326        44.0097 
 222   0.0000       1.619344        44.0646 
 223   0.0000       1.630055        44.3561 
 224   0.0000       1.655709        45.0541 
 225   0.0000       1.666046        45.3354 
 226   0.0000       1.678661        45.6787 
 227   0.0000       1.708248        46.4838 
 228   0.0000       1.716684        46.7134 
 229   0.0000       1.750755        47.6405 
 230   0.0000       1.751517        47.6612 
 231   0.0000       1.789163        48.6856 
 232   0.0000       1.797255        48.9058 
 233   0.0000       1.804677        49.1078 
 234   0.0000       1.834468        49.9184 
 235   0.0000       1.871111        50.9155 
 236   0.0000       1.892654        51.5017 
 237   0.0000       1.897339        51.6292 
 238   0.0000       1.909967        51.9728 
 239   0.0000       1.917623        52.1812 
 240   0.0000       1.939737        52.7829 
 241   0.0000       1.951128        53.0929 
 242   0.0000       1.959570        53.3226 
 243   0.0000       1.962070        53.3906 
 244   0.0000       1.974380        53.7256 
 245   0.0000       2.008344        54.6498 
 246   0.0000       2.011494        54.7355 
 247   0.0000       2.029672        55.2302 
 248   0.0000       2.037882        55.4536 
 249   0.0000       2.092042        56.9274 
 250   0.0000       2.108379        57.3719 
 251   0.0000       2.125555        57.8393 
 252   0.0000       2.138769        58.1989 
 253   0.0000       2.157428        58.7066 
 254   0.0000       2.175795        59.2064 
 255   0.0000       2.189370        59.5758 
 256   0.0000       2.226965        60.5988 
 257   0.0000       2.231325        60.7174 
 258   0.0000       2.265028        61.6345 
 259   0.0000       2.295958        62.4762 
 260   0.0000       2.305258        62.7293 
 261   0.0000       2.328340        63.3574 
 262   0.0000       2.353635        64.0457 
 263   0.0000       2.367336        64.4185 
 264   0.0000       2.370090        64.4934 
 265   0.0000       2.401088        65.3369 
 266   0.0000       2.420384        65.8620 
 267   0.0000       2.441543        66.4378 
 268   0.0000       2.459807        66.9348 
 269   0.0000       2.489083        67.7314 
 270   0.0000       2.493695        67.8569 
 271   0.0000       2.502326        68.0917 
 272   0.0000       2.516797        68.4855 
 273   0.0000       2.525792        68.7303 
 274   0.0000       2.533954        68.9524 
 275   0.0000       2.562505        69.7293 
 276   0.0000       2.585337        70.3506 
 277   0.0000       2.597750        70.6884 
 278   0.0000       2.602506        70.8178 
 279   0.0000       2.614938        71.1561 
 280   0.0000       2.625268        71.4372 
 281   0.0000       2.633899        71.6720 
 282   0.0000       2.647190        72.0337 
 283   0.0000       2.656484        72.2866 
 284   0.0000       2.665313        72.5268 
 285   0.0000       2.679312        72.9078 
 286   0.0000       2.696039        73.3629 
 287   0.0000       2.700023        73.4714 
 288   0.0000       2.714002        73.8517 
 289   0.0000       2.723232        74.1029 
 290   0.0000       2.736652        74.4681 
 291   0.0000       2.763938        75.2106 
 292   0.0000       2.787621        75.8550 
 293   0.0000       2.797018        76.1107 
 294   0.0000       2.812187        76.5235 
 295   0.0000       2.822332        76.7995 
 296   0.0000       2.829644        76.9985 
 297   0.0000       2.831052        77.0369 
 298   0.0000       2.854410        77.6724 
 299   0.0000       2.867394        78.0258 
 300   0.0000       2.871498        78.1374 
 301   0.0000       2.880415        78.3801 
 302   0.0000       2.897381        78.8418 
 303   0.0000       2.899028        78.8866 
 304   0.0000       2.912658        79.2575 
 305   0.0000       2.938500        79.9607 
 306   0.0000       2.946051        80.1661 
 307   0.0000       2.953382        80.3656 
 308   0.0000       2.964730        80.6744 
 309   0.0000       2.970510        80.8317 
 310   0.0000       2.977938        81.0338 
 311   0.0000       2.997976        81.5791 
 312   0.0000       3.007907        81.8493 
 313   0.0000       3.029094        82.4258 
 314   0.0000       3.038138        82.6719 
 315   0.0000       3.045274        82.8661 
 316   0.0000       3.051911        83.0467 
 317   0.0000       3.058885        83.2365 
 318   0.0000       3.064561        83.3909 
 319   0.0000       3.079573        83.7994 
 320   0.0000       3.087622        84.0185 
 321   0.0000       3.093700        84.1838 
 322   0.0000       3.100161        84.3597 
 323   0.0000       3.115591        84.7795 
 324   0.0000       3.124895        85.0327 
 325   0.0000       3.145716        85.5993 
 326   0.0000       3.146319        85.6157 
 327   0.0000       3.166062        86.1529 
 328   0.0000       3.173175        86.3465 
 329   0.0000       3.183497        86.6273 
 330   0.0000       3.184198        86.6464 
 331   0.0000       3.198744        87.0423 
 332   0.0000       3.202831        87.1535 
 333   0.0000       3.220017        87.6211 
 334   0.0000       3.225128        87.7602 
 335   0.0000       3.242886        88.2434 
 336   0.0000       3.246993        88.3552 
 337   0.0000       3.259781        88.7032 
 338   0.0000       3.274609        89.1066 
 339   0.0000       3.277219        89.1777 
 340   0.0000       3.287788        89.4653 
 341   0.0000       3.305375        89.9438 
 342   0.0000       3.315990        90.2327 
 343   0.0000       3.333323        90.7043 
 344   0.0000       3.341991        90.9402 
 345   0.0000       3.346976        91.0758 
 346   0.0000       3.356241        91.3280 
 347   0.0000       3.368472        91.6608 
 348   0.0000       3.385141        92.1144 
 349   0.0000       3.388799        92.2139 
 350   0.0000       3.401413        92.5571 
 351   0.0000       3.405631        92.6719 
 352   0.0000       3.418432        93.0203 
 353   0.0000       3.419849        93.0588 
 354   0.0000       3.433864        93.4402 
 355   0.0000       3.438545        93.5676 
 356   0.0000       3.452531        93.9482 
 357   0.0000       3.461338        94.1878 
 358   0.0000       3.480446        94.7078 
 359   0.0000       3.492178        95.0270 
 360   0.0000       3.499467        95.2253 
 361   0.0000       3.512062        95.5681 
 362   0.0000       3.520081        95.7863 
 363   0.0000       3.529014        96.0294 
 364   0.0000       3.542573        96.3983 
 365   0.0000       3.549286        96.5810 
 366   0.0000       3.561581        96.9156 
 367   0.0000       3.568642        97.1077 
 368   0.0000       3.579273        97.3970 
 369   0.0000       3.595820        97.8472 
 370   0.0000       3.597067        97.8812 
 371   0.0000       3.617777        98.4447 
 372   0.0000       3.626081        98.6707 
 373   0.0000       3.641310        99.0851 
 374   0.0000       3.645645        99.2030 
 375   0.0000       3.663136        99.6790 
 376   0.0000       3.677949       100.0821 
 377   0.0000       3.705620       100.8351 
 378   0.0000       3.716862       101.1410 
 379   0.0000       3.721947       101.2793 
 380   0.0000       3.735960       101.6606 
 381   0.0000       3.753462       102.1369 
 382   0.0000       3.771157       102.6184 
 383   0.0000       3.776465       102.7628 
 384   0.0000       3.785122       102.9984 
 385   0.0000       3.797698       103.3406 
 386   0.0000       3.813998       103.7842 
 387   0.0000       3.824746       104.0766 
 388   0.0000       3.852212       104.8240 
 389   0.0000       3.861168       105.0677 
 390   0.0000       3.871606       105.3517 
 391   0.0000       3.884973       105.7155 
 392   0.0000       3.900276       106.1319 
 393   0.0000       3.904268       106.2405 
 394   0.0000       3.905517       106.2745 
 395   0.0000       3.951219       107.5181 
 396   0.0000       3.952556       107.5545 
 397   0.0000       3.962846       107.8345 
 398   0.0000       3.968420       107.9862 
 399   0.0000       3.976997       108.2196 
 400   0.0000       3.996827       108.7592 
 401   0.0000       4.003467       108.9399 
 402   0.0000       4.007027       109.0367 
 403   0.0000       4.020177       109.3946 
 404   0.0000       4.038028       109.8803 
 405   0.0000       4.070814       110.7725 
 406   0.0000       4.080846       111.0455 
 407   0.0000       4.099137       111.5432 
 408   0.0000       4.108322       111.7931 
 409   0.0000       4.112604       111.9096 
 410   0.0000       4.114336       111.9568 
 411   0.0000       4.151285       112.9622 
 412   0.0000       4.158765       113.1657 
 413   0.0000       4.179382       113.7268 
 414   0.0000       4.186225       113.9130 
 415   0.0000       4.190379       114.0260 
 416   0.0000       4.203854       114.3927 
 417   0.0000       4.212236       114.6208 
 418   0.0000       4.218000       114.7776 
 419   0.0000       4.239303       115.3573 
 420   0.0000       4.256607       115.8282 
 421   0.0000       4.258156       115.8703 
 422   0.0000       4.268800       116.1600 
 423   0.0000       4.280586       116.4807 
 424   0.0000       4.295561       116.8882 
 425   0.0000       4.312417       117.3468 
 426   0.0000       4.318887       117.5229 
 427   0.0000       4.349956       118.3683 
 428   0.0000       4.368767       118.8802 
 429   0.0000       4.401926       119.7825 
 430   0.0000       4.406256       119.9003 
 431   0.0000       4.425580       120.4262 
 432   0.0000       4.455619       121.2436 
 433   0.0000       4.482131       121.9650 
 434   0.0000       4.489467       122.1646 
 435   0.0000       4.510642       122.7408 
 436   0.0000       4.527425       123.1975 
 437   0.0000       4.531661       123.3128 
 438   0.0000       4.574522       124.4791 
 439   0.0000       4.590081       124.9024 
 440   0.0000       4.596828       125.0860 
 441   0.0000       4.621269       125.7511 
 442   0.0000       4.644611       126.3863 
 443   0.0000       4.656341       126.7055 
 444   0.0000       4.682864       127.4272 
 445   0.0000       4.699832       127.8889 
 446   0.0000       4.712332       128.2291 
 447   0.0000       4.728709       128.6747 
 448   0.0000       4.746491       129.1586 
 449   0.0000       4.757617       129.4613 
 450   0.0000       4.768644       129.7614 
 451   0.0000       4.797139       130.5368 
 452   0.0000       4.810106       130.8896 
 453   0.0000       4.826459       131.3346 
 454   0.0000       4.839057       131.6774 
 455   0.0000       4.853459       132.0693 
 456   0.0000       4.855721       132.1309 
 457   0.0000       4.875922       132.6806 
 458   0.0000       4.880970       132.8179 
 459   0.0000       4.902189       133.3953 
 460   0.0000       4.927704       134.0896 
 461   0.0000       4.941552       134.4665 
 462   0.0000       4.971844       135.2907 
 463   0.0000       4.985240       135.6553 
 464   0.0000       5.019320       136.5826 
 465   0.0000       5.032059       136.9293 
 466   0.0000       5.044064       137.2560 
 467   0.0000       5.073908       138.0681 
 468   0.0000       5.093303       138.5958 
 469   0.0000       5.101270       138.8126 
 470   0.0000       5.115945       139.2119 
 471   0.0000       5.138764       139.8329 
 472   0.0000       5.158004       140.3564 
 473   0.0000       5.172668       140.7555 
 474   0.0000       5.175489       140.8322 
 475   0.0000       5.177875       140.8971 
 476   0.0000       5.187963       141.1716 
 477   0.0000       5.210780       141.7925 
 478   0.0000       5.225036       142.1805 
 479   0.0000       5.236894       142.5031 
 480   0.0000       5.240998       142.6148 
 481   0.0000       5.268189       143.3547 
 482   0.0000       5.285550       143.8271 
 483   0.0000       5.304748       144.3495 
 484   0.0000       5.309962       144.4914 
 485   0.0000       5.324151       144.8775 
 486   0.0000       5.330396       145.0474 
 487   0.0000       5.352170       145.6400 
 488   0.0000       5.363980       145.9613 
 489   0.0000       5.385843       146.5562 
 490   0.0000       5.450742       148.3222 
 491   0.0000       5.457893       148.5168 
 492   0.0000       5.463040       148.6569 
 493   0.0000       5.501226       149.6960 
 494   0.0000       5.508003       149.8804 
 495   0.0000       5.518646       150.1700 
 496   0.0000       5.527266       150.4045 
 497   0.0000       5.553402       151.1158 
 498   0.0000       5.566430       151.4703 
 499   0.0000       5.588101       152.0600 
 500   0.0000       5.592922       152.1911 
 501   0.0000       5.598530       152.3438 
 502   0.0000       5.624228       153.0430 
 503   0.0000       5.636518       153.3775 
 504   0.0000       5.668409       154.2453 
 505   0.0000       5.682682       154.6337 
 506   0.0000       5.695635       154.9861 
 507   0.0000       5.710735       155.3970 
 508   0.0000       5.757133       156.6596 
 509   0.0000       5.770663       157.0277 
 510   0.0000       5.798338       157.7808 
 511   0.0000       5.857002       159.3771 
 512   0.0000       5.885969       160.1654 
 513   0.0000       5.899654       160.5377 
 514   0.0000       5.905837       160.7060 
 515   0.0000       5.913706       160.9201 
 516   0.0000       5.954377       162.0268 
 517   0.0000       5.985990       162.8871 
 518   0.0000       6.026033       163.9767 
 519   0.0000       6.084881       165.5780 
 520   0.0000       6.114938       166.3959 
 521   0.0000       6.126479       166.7100 
 522   0.0000       6.150435       167.3619 
 523   0.0000       6.190412       168.4497 
 524   0.0000       6.291173       171.1915 
 525   0.0000       6.314683       171.8312 
 526   0.0000       6.316434       171.8789 
 527   0.0000       6.352084       172.8490 
 528   0.0000       6.377101       173.5297 
 529   0.0000       6.402967       174.2336 
 530   0.0000       6.409123       174.4011 
 531   0.0000       6.438319       175.1956 
 532   0.0000       6.443220       175.3289 
 533   0.0000       6.475280       176.2013 
 534   0.0000       6.498561       176.8348 
 535   0.0000       6.511260       177.1804 
 536   0.0000       6.566543       178.6847 
 537   0.0000       6.572747       178.8535 
 538   0.0000       6.579531       179.0381 
 539   0.0000       6.620057       180.1409 
 540   0.0000       6.656942       181.1446 
 541   0.0000       6.729696       183.1243 
 542   0.0000       6.731873       183.1836 
 543   0.0000       6.741109       183.4349 
 544   0.0000       6.808161       185.2595 
 545   0.0000       6.821293       185.6168 
 546   0.0000       6.846923       186.3142 
 547   0.0000       6.880572       187.2299 
 548   0.0000       6.945441       188.9951 
 549   0.0000       7.006570       190.6585 
 550   0.0000       7.024022       191.1334 
 551   0.0000       7.044603       191.6934 
 552   0.0000       7.102347       193.2647 
 553   0.0000       7.116930       193.6615 
 554   0.0000       7.127129       193.9391 
 555   0.0000       7.368741       200.5136 
 556   0.0000       7.455284       202.8686 
 557   0.0000       7.505353       204.2310 
 558   0.0000      23.127875       629.3415 
 559   0.0000      23.185937       630.9214 
 560   0.0000      23.237915       632.3358 
 561   0.0000      23.287179       633.6764 
 562   0.0000      23.295167       633.8937 
 563   0.0000      23.402428       636.8125 
 564   0.0000      32.723732       890.4580 
 565   0.0000      32.795822       892.4197 
 566   0.0000      32.953506       896.7105 
 567   0.0000      43.836315      1192.8468 
 568   0.0000      43.886490      1194.2121 
 569   0.0000      43.956616      1196.1203 
 570   0.0000      44.006804      1197.4860 

                    ********************************
                    * MULLIKEN POPULATION ANALYSIS *
                    ********************************

-----------------------
MULLIKEN ATOMIC CHARGES
-----------------------
   0 N :   -0.168030
   1 H :    0.203190
   2 C :   -0.128086
   3 C :    0.335118
   4 H :    0.135546
   5 H :    0.135318
   6 O :   -0.301602
   7 C :    0.320752
   8 C :   -0.083458
   9 O :   -0.477130
  10 N :   -0.183772
  11 H :    0.154633
  12 H :    0.162343
  13 H :    0.183551
  14 C :    0.207372
  15 C :   -0.141584
  16 O :   -0.326982
  17 H :    0.144924
  18 H :    0.171974
  19 O :   -0.209136
  20 H :    0.228626
  21 N :   -0.077559
  22 H :    0.241544
  23 H :    0.233208
  24 H :    0.239239
Sum of atomic charges:    1.0000000

--------------------------------
MULLIKEN REDUCED ORBITAL CHARGES
--------------------------------
  0 N s       :     3.427463  s :     3.427463
      pz      :     1.059136  p :     3.680878
      px      :     1.324007
      py      :     1.297735
      dz2     :     0.015324  d :     0.055700
      dxz     :     0.013677
      dyz     :     0.014610
      dx2y2   :     0.004858
      dxy     :     0.007232
      f0      :     0.000714  f :     0.003988
      f+1     :     0.000666
      f-1     :     0.000792
      f+2     :     0.000306
      f-2     :     0.000480
      f+3     :     0.000487
      f-3     :     0.000543
  1 H s       :     0.722701  s :     0.722701
      pz      :     0.015696  p :     0.068640
      px      :     0.026394
      py      :     0.026550
      dz2     :     0.000705  d :     0.005469
      dxz     :     0.000920
      dyz     :     0.000934
      dx2y2   :     0.001814
      dxy     :     0.001095
  2 C s       :     3.184586  s :     3.184586
      pz      :     0.767461  p :     2.826795
      px      :     1.031998
      py      :     1.027337
      dz2     :     0.019160  d :     0.108821
      dxz     :     0.026751
      dyz     :     0.031692
      dx2y2   :     0.017383
      dxy     :     0.013836
      f0      :     0.002102  f :     0.007885
      f+1     :     0.001954
      f-1     :     0.001908
      f+2     :     0.000181
      f-2     :     0.000569
      f+3     :     0.000577
      f-3     :     0.000593
  3 C s       :     3.064577  s :     3.064577
      pz      :     0.687437  p :     2.294988
      px      :     0.802514
      py      :     0.805036
      dz2     :     0.091886  d :     0.281191
      dxz     :     0.063024
      dyz     :     0.065329
      dx2y2   :     0.030301
      dxy     :     0.030651
      f0      :     0.003929  f :     0.024125
      f+1     :     0.005999
      f-1     :     0.005183
      f+2     :     0.003085
      f-2     :     0.002523
      f+3     :     0.001786
      f-3     :     0.001620
  4 H s       :     0.828600  s :     0.828600
      pz      :     0.006974  p :     0.033816
      px      :     0.016614
      py      :     0.010228
      dz2     :     0.000316  d :     0.002038
      dxz     :     0.000564
      dyz     :     0.000107
      dx2y2   :     0.000396
      dxy     :     0.000655
  5 H s       :     0.828705  s :     0.828705
      pz      :     0.008272  p :     0.033932
      px      :     0.009604
      py      :     0.016056
      dz2     :     0.000538  d :     0.002044
      dxz     :     0.000143
      dyz     :     0.000397
      dx2y2   :     0.000337
      dxy     :     0.000629
  6 O s       :     3.813072  s :     3.813072
      pz      :     1.533046  p :     4.453685
      px      :     1.439203
      py      :     1.481436
      dz2     :     0.006320  d :     0.032948
      dxz     :     0.007417
      dyz     :     0.006846
      dx2y2   :     0.007603
      dxy     :     0.004763
      f0      :     0.000256  f :     0.001897
      f+1     :     0.000342
      f-1     :     0.000263
      f+2     :     0.000458
      f-2     :     0.000332
      f+3     :     0.000141
      f-3     :     0.000107
[...]
     53       0.000894  -0.043734   0.000157   0.038778  -0.005260  -0.002556
     54       0.007523  -0.526011  -0.002555  -0.613890   0.007589   0.000566
     55      -0.000856   0.054096   0.000326   0.076908   0.000652   0.000652
     56       0.005381  -0.375052  -0.001688  -0.438616   0.004174  -0.000103
     57       0.000016  -0.000005   0.000006  -0.000000   0.000028  -0.000025
     58      -0.000026   0.000008  -0.000006  -0.000000  -0.000040   0.000027
     59       0.000048  -0.000009   0.000006  -0.000000   0.000030  -0.000018
     60      -0.000145   0.000038  -0.000023   0.000005  -0.000288   0.000360
     61       0.000176  -0.000061   0.000044   0.000006   0.000386  -0.000311
     62      -0.000003   0.000013  -0.000014   0.000004   0.000097  -0.000215
     63      -0.000597   0.002329  -0.000059  -0.000886  -0.057750   0.003459
     64       0.000193   0.000544   0.000006  -0.001532  -0.017341  -0.076556
     65      -0.000450   0.000919  -0.000052   0.000329   0.012990  -0.022713
     66      -0.000223  -0.005460   0.000031   0.012500   0.621747   0.311504
     67      -0.000081  -0.004748  -0.000051   0.014373   0.639600   0.302437
     68       0.000119  -0.001940  -0.000043   0.007202  -0.033521  -0.019633
     69      -0.000048   0.001391   0.000004   0.000493   0.155656  -0.328633
     70       0.000571  -0.008266   0.000136  -0.001520  -0.379081   0.758110
     71       0.000252   0.002125   0.000038  -0.001855  -0.172299   0.346581
     72       0.008610  -0.027370   0.001035  -0.007423   0.021276  -0.024332
     73      -0.003315   0.010531  -0.000447   0.004659  -0.013990  -0.002380
     74       0.006700  -0.022928   0.000676  -0.014240   0.026515  -0.019406
                 72         73         74    
      0       0.045454  -0.000189   0.000460
      1      -0.048038   0.000180  -0.000518
      2      -0.032141   0.000027  -0.000072
      3      -0.612026   0.001915  -0.003815
      4       0.643716  -0.001916   0.004159
      5       0.452203  -0.001310   0.001656
      6       0.000193  -0.000017  -0.000202
      7      -0.000166   0.000016   0.000177
      8      -0.000582   0.000034   0.000278
      9      -0.000653   0.000024   0.001890
     10       0.000618  -0.000025  -0.002074
     11       0.000801   0.000016  -0.000183
     12      -0.004173   0.000112   0.000315
     13      -0.003251  -0.000004   0.000997
     14       0.004806  -0.000052   0.000747
     15       0.002971   0.000011  -0.001112
     16       0.003376  -0.000057  -0.000228
     17       0.006024  -0.000127   0.000627
     18       0.000495  -0.000012  -0.000639
     19      -0.000506   0.000010   0.000591
     20      -0.000505  -0.000005   0.000827
     21      -0.000252   0.000111  -0.000199
     22       0.000367  -0.000114   0.000234
     23      -0.000462  -0.000112  -0.000001
     24       0.000191  -0.000976  -0.000000
     25      -0.000277   0.000130   0.000007
     26       0.000056  -0.001074  -0.000005
     27      -0.001349  -0.000079   0.000084
     28       0.001546   0.000109  -0.000090
     29       0.000134  -0.000045  -0.000029
     30      -0.000155  -0.032487   0.000026
     31      -0.000222  -0.065623  -0.000034
     32      -0.000080  -0.001488   0.000019
     33      -0.001799   0.006047   0.000085
     34       0.001051  -0.000123   0.000009
     35       0.000263   0.000723  -0.000016
     36      -0.000268   0.001808  -0.000052
     37       0.001912   0.010094  -0.000107
     38       0.000486   0.001198  -0.000030
     39       0.001146   0.427426   0.000148
     40       0.002836   0.900009   0.000267
     41       0.000596   0.041239  -0.000019
     42       0.000175   0.001251  -0.000057
     43       0.000011  -0.001304  -0.000003
     44       0.000058  -0.000758  -0.000002
     45      -0.000002  -0.000315  -0.000001
     46       0.000007  -0.000250  -0.000001
     47       0.000017   0.000221   0.000002
     48      -0.000059   0.000727   0.000019
     49      -0.000027   0.000788   0.000005
     50      -0.000039  -0.000056   0.000001
     51      -0.000072   0.005152   0.000000
     52      -0.000306   0.004704   0.000025
     53       0.000098  -0.000717  -0.000018
     54       0.000023   0.001270   0.000016
     55      -0.000008  -0.000084  -0.000006
     56       0.000152  -0.000118  -0.000024
     57      -0.000105  -0.000019   0.037120
     58       0.000162   0.000019  -0.036374
     59      -0.000299  -0.000004  -0.034730
     60       0.003395   0.000219  -0.599816
     61      -0.003099  -0.000185   0.591452
     62      -0.004648  -0.000078   0.535209
     63      -0.001220  -0.000047   0.000067
     64       0.002151  -0.000283  -0.000040
     65       0.000339  -0.000038   0.000011
     66      -0.002310   0.001425  -0.000165
     67      -0.002260   0.001803  -0.000080
     68       0.000175   0.000126   0.000066
     69       0.010205  -0.000878  -0.000133
     70      -0.023723   0.002445   0.000331
     71      -0.010974   0.001191   0.000217
     72       0.010692  -0.000524  -0.000871
     73      -0.004874   0.000364   0.000470
     74       0.006457   0.000451  -0.000351


-----------
IR SPECTRUM
-----------

 Mode   freq       eps      Int      T**2         TX        TY        TZ
       cm**-1   L/(mol*cm) km/mol    a.u.
----------------------------------------------------------------------------
  6:     24.41   0.000299    1.51  0.003829  ( 0.020674  0.051158 -0.028000)
  7:     60.43   0.001138    5.75  0.005876  (-0.048954 -0.023451 -0.054125)
  8:     63.39   0.000154    0.78  0.000758  ( 0.026476  0.001579  0.007374)
  9:     69.10   0.000908    4.59  0.004103  ( 0.051585  0.034216  0.016459)
 10:     93.15   0.001214    6.14  0.004067  ( 0.052045  0.005953  0.036375)
 11:    129.60   0.006510   32.90  0.015675  (-0.011922 -0.100335  0.073928)
 12:    167.93   0.013484   68.14  0.025057  (-0.102228  0.058747 -0.105618)
 13:    183.97   0.001125    5.68  0.001908  (-0.026626 -0.034549 -0.002319)
 14:    266.28   0.004796   24.24  0.005620  ( 0.070126 -0.009439 -0.024769)
 15:    268.76   0.009968   50.37  0.011574  ( 0.045287 -0.049333 -0.084198)
 16:    303.29   0.001336    6.75  0.001375  ( 0.002726 -0.018721  0.031887)
 17:    308.73   0.002515   12.71  0.002542  ( 0.034561 -0.029637  0.021671)
 18:    350.67   0.000361    1.82  0.000321  ( 0.007557 -0.015989 -0.002896)
 19:    403.68   0.007915   40.00  0.006118  (-0.062236  0.042303 -0.021346)
 20:    433.59   0.001524    7.70  0.001097  (-0.020499  0.023564 -0.011025)
 21:    450.45   0.018166   91.80  0.012585  (-0.082642 -0.075143 -0.010413)
 22:    539.88   0.001715    8.67  0.000991  ( 0.012488 -0.022392  0.018273)
 23:    558.18   0.005124   25.89  0.002865  ( 0.040770  0.031338  0.014840)
 24:    585.61   0.006604   33.37  0.003519  (-0.035847 -0.025741  0.039641)
 25:    593.78   0.005178   26.17  0.002721  ( 0.030769  0.018559 -0.037818)
 26:    652.79   0.004743   23.97  0.002267  ( 0.010184 -0.029523  0.035943)
 27:    676.01   0.008282   41.85  0.003823  ( 0.000459  0.019971  0.058516)
 28:    693.47   0.013147   66.44  0.005916  (-0.061307 -0.032685  0.033003)
 29:    736.82   0.003247   16.41  0.001375  ( 0.027648 -0.015036 -0.019613)
 30:    787.75   0.002976   15.04  0.001179  ( 0.001693  0.000927 -0.034284)
 31:    878.40   0.001495    7.55  0.000531  ( 0.009442 -0.021018 -0.000365)
 32:    888.87   0.002010   10.16  0.000706  (-0.002243 -0.003390 -0.026253)
 33:    913.05   0.002581   13.04  0.000882  (-0.012852  0.000311 -0.026776)
 34:    980.45   0.000731    3.70  0.000233  (-0.008142 -0.003945  0.012287)
 35:    994.70   0.008812   44.53  0.002765  ( 0.038165 -0.030169  0.019949)
 36:   1022.60   0.000364    1.84  0.000111  (-0.007089 -0.007714  0.001190)
 37:   1056.92   0.001087    5.49  0.000321  ( 0.017375 -0.004046 -0.001590)
 38:   1076.61   0.002697   13.63  0.000782  ( 0.026879  0.006768  0.003653)
 39:   1135.45   0.002749   13.89  0.000755  ( 0.003973 -0.025359  0.009830)
 40:   1142.48   0.010725   54.20  0.002930  (-0.036188  0.038346 -0.012229)
 41:   1162.69   0.002591   13.09  0.000695  ( 0.017578 -0.007542  0.018152)
 42:   1203.68   0.001979   10.00  0.000513  (-0.002250  0.000580  0.022531)
 43:   1261.97   0.000323    1.63  0.000080  ( 0.007925  0.004117  0.000311)
 44:   1271.23   0.008125   41.06  0.001995  (-0.009051  0.010562 -0.042440)
 45:   1281.67   0.001831    9.25  0.000446  (-0.009169  0.013715  0.013176)
 46:   1302.68   0.008104   40.95  0.001941  ( 0.032869 -0.016413 -0.024321)
 47:   1314.31   0.059105  298.69  0.014034  ( 0.031031 -0.047803  0.103853)
 48:   1333.94   0.009365   47.33  0.002191  ( 0.029100 -0.010517  0.035119)
 49:   1381.85   0.022971  116.09  0.005188  (-0.031847  0.043500 -0.047761)
 50:   1420.87   0.001462    7.39  0.000321  ( 0.004585 -0.001809 -0.017231)
 51:   1434.89   0.034089  172.27  0.007414  (-0.014013  0.021564 -0.082173)
 52:   1474.97   0.003114   15.74  0.000659  ( 0.001196 -0.020000 -0.016043)
 53:   1502.20   0.004648   23.49  0.000966  ( 0.022795 -0.017684 -0.011545)
 54:   1504.95   0.003144   15.89  0.000652  ( 0.006614 -0.022638  0.009788)
 55:   1541.42   0.027346  138.20  0.005536  ( 0.053125 -0.024834 -0.045796)
 56:   1571.32   0.040016  202.22  0.007947  (-0.087315  0.017074 -0.005638)
 57:   1601.11   0.042551  215.04  0.008293  ( 0.015911 -0.026556  0.085645)
 58:   1625.56   0.029225  147.69  0.005610  ( 0.018861 -0.068659  0.023252)
 59:   1681.92   0.039952  201.90  0.007413  (-0.061987  0.058433 -0.012482)
 60:   1724.60   0.073159  369.71  0.013238  (-0.069582  0.087636 -0.026764)
 61:   1819.18   0.046188  233.42  0.007923  ( 0.074959  0.046023  0.013643)
 62:   1884.12   0.046045  232.69  0.007626  ( 0.045720 -0.043821 -0.060132)
 63:   3003.30   0.180241  910.86  0.018728  (-0.103687  0.069027 -0.056680)
 64:   3076.28   0.002635   13.32  0.000267  (-0.000869  0.004355 -0.015735)
 65:   3117.73   0.000363    1.83  0.000036  ( 0.004840  0.003464  0.000934)
 66:   3120.33   0.002123   10.73  0.000212  ( 0.010286 -0.003733  0.009622)
 67:   3132.80   0.000692    3.50  0.000069  (-0.008211 -0.000406 -0.001168)
 68:   3173.89   0.000213    1.07  0.000021  ( 0.002589  0.003125  0.002107)
 69:   3203.62   0.000144    0.73  0.000014  (-0.001188  0.002527 -0.002488)
 70:   3476.47   0.016921   85.51  0.001519  ( 0.038353  0.003271 -0.006105)
 71:   3557.07   0.022052  111.44  0.001935  (-0.007374  0.042037  0.010638)
 72:   3571.96   0.032621  164.85  0.002850  (-0.034659  0.039620 -0.008884)
 73:   3661.91   0.009086   45.92  0.000774  ( 0.018146  0.020895 -0.002906)
 74:   3853.83   0.017826   90.09  0.001443  (-0.014405  0.011675  0.033161)

* The epsilon (eps) is given for a Dirac delta lineshape.
** The dipole moment derivative (T) already includes vibrational overlap.

The first frequency considered to be a vibration is 6
The total number of vibrations considered is 69


--------------------------
THERMOCHEMISTRY AT 298.15K
--------------------------

Temperature         ... 298.15 K
Pressure            ... 1.00 atm
Total Mass          ... 190.18 AMU

Throughout the following assumptions are being made:
  (1) The electronic state is orbitally nondegenerate
  (2) There are no thermally accessible electronically excited states
  (3) Hindered rotations indicated by low frequency modes are not
      treated as such but are treated as vibrations and this may
      cause some error
  (4) All equations used are the standard statistical mechanics
      equations for an ideal gas
  (5) All vibrations are strictly harmonic

freq.      24.41  E(vib)   ...       0.56 
freq.      60.43  E(vib)   ...       0.51 
freq.      63.39  E(vib)   ...       0.51 
freq.      69.10  E(vib)   ...       0.50 
freq.      93.15  E(vib)   ...       0.47 
freq.     129.60  E(vib)   ...       0.43 
freq.     167.93  E(vib)   ...       0.38 
freq.     183.97  E(vib)   ...       0.37 
freq.     266.28  E(vib)   ...       0.29 
freq.     268.76  E(vib)   ...       0.29 
freq.     303.29  E(vib)   ...       0.26 
freq.     308.73  E(vib)   ...       0.26 
freq.     350.67  E(vib)   ...       0.23 
freq.     403.68  E(vib)   ...       0.19 
freq.     433.59  E(vib)   ...       0.17 
freq.     450.45  E(vib)   ...       0.17 
freq.     539.88  E(vib)   ...       0.12 
freq.     558.18  E(vib)   ...       0.12 
freq.     585.61  E(vib)   ...       0.11 
freq.     593.78  E(vib)   ...       0.10 
freq.     652.79  E(vib)   ...       0.08 
freq.     676.01  E(vib)   ...       0.08 
freq.     693.47  E(vib)   ...       0.07 
freq.     736.82  E(vib)   ...       0.06 
freq.     787.75  E(vib)   ...       0.05 
freq.     878.40  E(vib)   ...       0.04 
freq.     888.87  E(vib)   ...       0.04 
freq.     913.05  E(vib)   ...       0.03 
freq.     980.45  E(vib)   ...       0.02 
freq.     994.70  E(vib)   ...       0.02 
freq.    1022.60  E(vib)   ...       0.02 
freq.    1056.92  E(vib)   ...       0.02 
freq.    1076.61  E(vib)   ...       0.02 
freq.    1135.45  E(vib)   ...       0.01 
freq.    1142.48  E(vib)   ...       0.01 
freq.    1162.69  E(vib)   ...       0.01 
freq.    1203.68  E(vib)   ...       0.01 
freq.    1261.97  E(vib)   ...       0.01 
freq.    1271.23  E(vib)   ...       0.01 
freq.    1281.67  E(vib)   ...       0.01 
freq.    1302.68  E(vib)   ...       0.01 
freq.    1314.31  E(vib)   ...       0.01 
freq.    1333.94  E(vib)   ...       0.01 
freq.    1381.85  E(vib)   ...       0.01 
freq.    1420.87  E(vib)   ...       0.00 
freq.    1434.89  E(vib)   ...       0.00 
freq.    1474.97  E(vib)   ...       0.00 
freq.    1502.20  E(vib)   ...       0.00 
freq.    1504.95  E(vib)   ...       0.00 
freq.    1541.42  E(vib)   ...       0.00 
freq.    1571.32  E(vib)   ...       0.00 
freq.    1601.11  E(vib)   ...       0.00 
freq.    1625.56  E(vib)   ...       0.00 
freq.    1681.92  E(vib)   ...       0.00 
freq.    1724.60  E(vib)   ...       0.00 
freq.    1819.18  E(vib)   ...       0.00 
freq.    1884.12  E(vib)   ...       0.00 
freq.    3003.30  E(vib)   ...       0.00 
freq.    3076.28  E(vib)   ...       0.00 
freq.    3117.73  E(vib)   ...       0.00 
freq.    3120.33  E(vib)   ...       0.00 
freq.    3132.80  E(vib)   ...       0.00 
freq.    3173.89  E(vib)   ...       0.00 
freq.    3203.62  E(vib)   ...       0.00 
freq.    3476.47  E(vib)   ...       0.00 
freq.    3557.07  E(vib)   ...       0.00 
freq.    3571.96  E(vib)   ...       0.00 
freq.    3661.91  E(vib)   ...       0.00 
freq.    3853.83  E(vib)   ...       0.00 

------------
INNER ENERGY
------------

The inner energy is: U= E(el) + E(ZPE) + E(vib) + E(rot) + E(trans)
    E(el)   - is the total energy from the electronic structure calculation
              = E(kin-el) + E(nuc-el) + E(el-el) + E(nuc-nuc)
    E(ZPE)  - the the zero temperature vibrational energy from the frequency calculation
    E(vib)  - the the finite temperature correction to E(ZPE) due to population
              of excited vibrational states
    E(rot)  - is the rotational thermal energy
    E(trans)- is the translational thermal energy

Summary of contributions to the inner energy U:
Electronic energy                ...   -701.33889819 Eh
Zero point energy                ...      0.20900277 Eh     131.15 kcal/mol
Thermal vibrational correction   ...      0.01069313 Eh       6.71 kcal/mol
Thermal rotational correction    ...      0.00141627 Eh       0.89 kcal/mol
Thermal translational correction ...      0.00141627 Eh       0.89 kcal/mol
-----------------------------------------------------------------------
Total thermal energy                   -701.11636974 Eh


Summary of corrections to the electronic energy:
(perhaps to be used in another calculation)
Total thermal correction                  0.01352567 Eh       8.49 kcal/mol
Non-thermal (ZPE) correction              0.20900277 Eh     131.15 kcal/mol
-----------------------------------------------------------------------
Total correction                          0.22252844 Eh     139.64 kcal/mol


--------
ENTHALPY
--------

The enthalpy is H = U + kB*T
                kB is Boltzmann's constant
Total free energy                 ...   -701.11636974 Eh 
Thermal Enthalpy correction       ...      0.00094421 Eh       0.59 kcal/mol
-----------------------------------------------------------------------
Total Enthalpy                    ...   -701.11542554 Eh


Note: Only C1 symmetry has been detected, increase convergence thresholds 
      if your molecule has a higher symmetry. Symmetry factor of 1.0 is   
      used for the rotational entropy correction. 
 

Note: Rotational entropy computed according to Herzberg 
Infrared and Raman Spectra, Chapter V,1, Van Nostrand Reinhold, 1945 
Point Group:  C1, Symmetry Number:   1  
Rotational constants in cm-1:     0.065982     0.010736     0.009869 

Vibrational entropy computed according to the QRRHO of S. Grimme
Chem.Eur.J. 2012 18 9955


-------
ENTROPY
-------

The entropy contributions are T*S = T*(S(el)+S(vib)+S(rot)+S(trans))
     S(el)   - electronic entropy
     S(vib)  - vibrational entropy
     S(rot)  - rotational entropy
     S(trans)- translational entropy
The entropies will be listed as multiplied by the temperature to get
units of energy

Electronic entropy                ...      0.00000000 Eh      0.00 kcal/mol
Vibrational entropy               ...      0.01903478 Eh     11.94 kcal/mol
Rotational entropy                ...      0.01511497 Eh      9.48 kcal/mol
Translational entropy             ...      0.01978162 Eh     12.41 kcal/mol
-----------------------------------------------------------------------
Final entropy term                ...      0.05393136 Eh     33.84 kcal/mol

In case the symmetry of your molecule has not been determined correctly
or in case you have a reason to use a different symmetry number we print 
out the resulting rotational entropy values for sn=1,12 :
 --------------------------------------------------------
|  sn= 1 | S(rot)=       0.01511497 Eh      9.48 kcal/mol|
|  sn= 2 | S(rot)=       0.01446051 Eh      9.07 kcal/mol|
|  sn= 3 | S(rot)=       0.01407768 Eh      8.83 kcal/mol|
|  sn= 4 | S(rot)=       0.01380606 Eh      8.66 kcal/mol|
|  sn= 5 | S(rot)=       0.01359537 Eh      8.53 kcal/mol|
|  sn= 6 | S(rot)=       0.01342322 Eh      8.42 kcal/mol|
|  sn= 7 | S(rot)=       0.01327768 Eh      8.33 kcal/mol|
|  sn= 8 | S(rot)=       0.01315160 Eh      8.25 kcal/mol|
|  sn= 9 | S(rot)=       0.01304039 Eh      8.18 kcal/mol|
|  sn=10 | S(rot)=       0.01294091 Eh      8.12 kcal/mol|
|  sn=11 | S(rot)=       0.01285092 Eh      8.06 kcal/mol|
|  sn=12 | S(rot)=       0.01276877 Eh      8.01 kcal/mol|
 --------------------------------------------------------


-------------------
GIBBS FREE ENERGY
-------------------

The Gibbs free energy is G = H - T*S

Total enthalpy                    ...   -701.11542554 Eh 
Total entropy correction          ...     -0.05393136 Eh    -33.84 kcal/mol
-----------------------------------------------------------------------
Final Gibbs free energy         ...   -701.16935690 Eh

For completeness - the Gibbs free energy minus the electronic energy
G-E(el)                           ...      0.16954129 Eh    106.39 kcal/mol


Timings for individual modules:

Sum of individual times         ...     7888.766 sec (= 131.479 min)
GTO integral calculation        ...       25.325 sec (=   0.422 min)   0.3 %
SCF iterations                  ...     2524.013 sec (=  42.067 min)  32.0 %
SCF Gradient evaluation         ...      512.479 sec (=   8.541 min)   6.5 %
Geometry relaxation             ...        0.996 sec (=   0.017 min)   0.0 %
Analytical frequency calculation...     4336.978 sec (=  72.283 min)  55.0 %
CHELPG charge generation        ...      488.976 sec (=   8.150 min)   6.2 %
                             ****ORCA TERMINATED NORMALLY****
TOTAL RUN TIME: 0 days 2 hours 11 minutes 54 seconds 982 msec
