
Lmod is automatically replacing "intel/2020.1.217" with "gcc/10.3.0".


Due to MODULEPATH changes, the following have been reloaded:
  1) blis/0.8.1     2) flexiblas/3.0.4

The following have been reloaded with a version change:
  1) gcccore/.9.3.0 => gcccore/.10.3.0        3) openmpi/4.0.3 => openmpi/4.1.1
  2) libfabric/1.10.1 => libfabric/1.12.1     4) ucx/1.8.0 => ucx/1.9.0

To execute ORCA, run: 
   ${EBROOTORCA}/orca orca.inp > orca.out

                                 *****************
                                 * O   R   C   A *
                                 *****************

                                            #,                                       
                                            ###                                      
                                            ####                                     
                                            #####                                    
                                            ######                                   
                                           ########,                                 
                                     ,,################,,,,,                         
                               ,,#################################,,                 
                          ,,##########################################,,             
                       ,#########################################, ''#####,          
                    ,#############################################,,   '####,        
                  ,##################################################,,,,####,       
                ,###########''''           ''''###############################       
              ,#####''   ,,,,##########,,,,          '''####'''          '####       
            ,##' ,,,,###########################,,,                        '##       
           ' ,,###''''                  '''############,,,                           
         ,,##''                                '''############,,,,        ,,,,,,###''
      ,#''                                            '''#######################'''  
     '                                                          ''''####''''         
             ,#######,   #######,   ,#######,      ##                                
            ,#'     '#,  ##    ##  ,#'     '#,    #''#        ######   ,####,        
            ##       ##  ##   ,#'  ##            #'  '#       #        #'  '#        
            ##       ##  #######   ##           ,######,      #####,   #    #        
            '#,     ,#'  ##    ##  '#,     ,#' ,#      #,         ##   #,  ,#        
             '#######'   ##     ##  '#######'  #'      '#     #####' # '####'        



                  #######################################################
                  #                        -***-                        #
                  #          Department of theory and spectroscopy      #
                  #    Directorship and core code : Frank Neese         #
                  #        Max Planck Institute fuer Kohlenforschung    #
                  #                Kaiser Wilhelm Platz 1               #
                  #                 D-45470 Muelheim/Ruhr               #
                  #                      Germany                        #
                  #                                                     #
                  #                  All rights reserved                #
                  #                        -***-                        #
                  #######################################################


                         Program Version 5.0.2 -  RELEASE  -


 With contributions from (in alphabetic order):
   Daniel Aravena         : Magnetic Suceptibility
   Michael Atanasov       : Ab Initio Ligand Field Theory (pilot matlab implementation)
   Alexander A. Auer      : GIAO ZORA, VPT2 properties, NMR spectrum
   Ute Becker             : Parallelization
   Giovanni Bistoni       : ED, misc. LED, open-shell LED, HFLD
   Martin Brehm           : Molecular dynamics
   Dmytro Bykov           : SCF Hessian
   Vijay G. Chilkuri      : MRCI spin determinant printing, contributions to CSF-ICE
   Dipayan Datta          : RHF DLPNO-CCSD density
   Achintya Kumar Dutta   : EOM-CC, STEOM-CC
   Dmitry Ganyushin       : Spin-Orbit,Spin-Spin,Magnetic field MRCI
   Miquel Garcia          : C-PCM and meta-GGA Hessian, CC/C-PCM, Gaussian charge scheme
   Yang Guo               : DLPNO-NEVPT2, F12-NEVPT2, CIM, IAO-localization
   Andreas Hansen         : Spin unrestricted coupled pair/coupled cluster methods
   Benjamin Helmich-Paris : MC-RPA, TRAH-SCF, COSX integrals
   Lee Huntington         : MR-EOM, pCC
   Robert Izsak           : Overlap fitted RIJCOSX, COSX-SCS-MP3, EOM
   Marcus Kettner         : VPT2
   Christian Kollmar      : KDIIS, OOCD, Brueckner-CCSD(T), CCSD density, CASPT2, CASPT2-K
   Simone Kossmann        : Meta GGA functionals, TD-DFT gradient, OOMP2, MP2 Hessian
   Martin Krupicka        : Initial AUTO-CI
   Lucas Lang             : DCDCAS
   Marvin Lechner         : AUTO-CI (C++ implementation), FIC-MRCC
   Dagmar Lenk            : GEPOL surface, SMD
   Dimitrios Liakos       : Extrapolation schemes; Compound Job, initial MDCI parallelization
   Dimitrios Manganas     : Further ROCIS development; embedding schemes
   Dimitrios Pantazis     : SARC Basis sets
   Anastasios Papadopoulos: AUTO-CI, single reference methods and gradients
   Taras Petrenko         : DFT Hessian,TD-DFT gradient, ASA, ECA, R-Raman, ABS, FL, XAS/XES, NRVS
   Peter Pinski           : DLPNO-MP2, DLPNO-MP2 Gradient
   Christoph Reimann      : Effective Core Potentials
   Marius Retegan         : Local ZFS, SOC
   Christoph Riplinger    : Optimizer, TS searches, QM/MM, DLPNO-CCSD(T), (RO)-DLPNO pert. Triples
   Tobias Risthaus        : Range-separated hybrids, TD-DFT gradient, RPA, STAB
   Michael Roemelt        : Original ROCIS implementation
   Masaaki Saitow         : Open-shell DLPNO-CCSD energy and density
   Barbara Sandhoefer     : DKH picture change effects
   Avijit Sen             : IP-ROCIS
   Kantharuban Sivalingam : CASSCF convergence, NEVPT2, FIC-MRCI
   Bernardo de Souza      : ESD, SOC TD-DFT
   Georgi Stoychev        : AutoAux, RI-MP2 NMR, DLPNO-MP2 response
   Willem Van den Heuvel  : Paramagnetic NMR
   Boris Wezisla          : Elementary symmetry handling
   Frank Wennmohs         : Technical directorship


 We gratefully acknowledge several colleagues who have allowed us to
 interface, adapt or use parts of their codes:
   Stefan Grimme, W. Hujo, H. Kruse, P. Pracht,  : VdW corrections, initial TS optimization,
                  C. Bannwarth, S. Ehlert          DFT functionals, gCP, sTDA/sTD-DF
   Ed Valeev, F. Pavosevic, A. Kumar             : LibInt (2-el integral package), F12 methods
   Garnet Chan, S. Sharma, J. Yang, R. Olivares  : DMRG
   Ulf Ekstrom                                   : XCFun DFT Library
   Mihaly Kallay                                 : mrcc  (arbitrary order and MRCC methods)
   Jiri Pittner, Ondrej Demel                    : Mk-CCSD
   Frank Weinhold                                : gennbo (NPA and NBO analysis)
   Christopher J. Cramer and Donald G. Truhlar   : smd solvation model
   Lars Goerigk                                  : TD-DFT with DH, B97 family of functionals
   V. Asgeirsson, H. Jonsson                     : NEB implementation
   FAccTs GmbH                                   : IRC, NEB, NEB-TS, DLPNO-Multilevel, CI-OPT
                                                   MM, QMMM, 2- and 3-layer-ONIOM, Crystal-QMMM,
                                                   LR-CPCM, SF, NACMEs, symmetry and pop. for TD-DFT,
                                                   nearIR, NL-DFT gradient (VV10), updates on ESD,
                                                   ML-optimized integration grids
   S Lehtola, MJT Oliveira, MAL Marques          : LibXC Library
   Liviu Ungur et al                             : ANISO software


 Your calculation uses the libint2 library for the computation of 2-el integrals
 For citations please refer to: http://libint.valeyev.net

 Your ORCA version has been built with support for libXC version: 5.1.0
 For citations please refer to: https://tddft.org/programs/libxc/

 This ORCA versions uses:
   CBLAS   interface :  Fast vector & matrix operations
   LAPACKE interface :  Fast linear algebra routines
   SCALAPACK package :  Parallel linear algebra routines
   Shared memory     :  Shared parallel matrices
   BLAS/LAPACK       :  OpenBLAS 0.3.15  USE64BITINT DYNAMIC_ARCH NO_AFFINITY Zen SINGLE_THREADED
        Core in use  :  Zen
   Copyright (c) 2011-2014, The OpenBLAS Project


Your calculation utilizes the atom-pairwise dispersion correction
with the Becke-Johnson damping scheme (D3BJ)
Cite in your paper:
S.Grimme, S.Ehrlich, L.Goerigk, J Comput Chem, (2011), 32, 1456–1465 
S.Grimme, J.Antony, S.Ehrlich and H.Krieg, J.Chem.Phys., 132, (2010), 154104 
   

================================================================================

----- Orbital basis set information -----
Your calculation utilizes the basis: def2-TZVPP
   F. Weigend and R. Ahlrichs, Phys. Chem. Chem. Phys. 7, 3297 (2005).

----- AuxJ basis set information -----
Your calculation utilizes the auxiliary basis: def2/J
   F. Weigend, Phys. Chem. Chem. Phys. 8, 1057 (2006).

================================================================================
                                        WARNINGS
                       Please study these warnings very carefully!
================================================================================


WARNING: Geometry Optimization
  ===> : Switching off AutoStart
         For restart on a previous wavefunction, please use MOREAD

INFO   : the flag for use of the SHARK integral package has been found!

================================================================================
                                       INPUT FILE
================================================================================
NAME = GGG-H_tt_023_OptFreq.inp
|  1> # GGG-H_tt_023 (old 124)
|  2> ! wB97X-D3BJ Opt Freq def2-TZVPP def2/J RIJCOSX VeryTightSCF
|  3> ! PAL8 defgrid3 VeryTightOpt
|  4> 
|  5> %maxcore 4096
|  6> 
|  7> %geom
|  8>   MaxIter 300
|  9>   # MaxStep 0.1
| 10>   Calc_Hess true
| 11>   Recalc_Hess 10
| 12> end
| 13> 
| 14> %chelpg
| 15>   grid 0.1
| 16>   rmax 3.0
| 17> end
| 18> 
| 19> * xyz 1 1 
| 20>  N   -0.335809   +0.902660   +2.654582
| 21>  H   -0.665394   -0.039302   +2.447372
| 22>  C   +0.536549   +1.050760   +3.824455
| 23>  C   +1.946214   +0.779552   +3.291729
| 24>  H   +0.432288   +2.065600   +4.237958
| 25>  H   +0.268138   +0.303725   +4.582955
| 26>  O   +2.392631   -0.369144   +3.201588
| 27>  C   -0.224997   +1.804569   +1.623458
| 28>  C   -0.697183   +1.274517   +0.250022
| 29>  O   +0.314371   +2.898035   +1.775911
| 30>  N   +0.000000   +0.000000   +0.000000
| 31>  H   -0.426080   +2.027464   -0.504040
| 32>  H   -1.782526   +1.092191   +0.221529
| 33>  H   -0.525828   -0.871162   -0.061568
| 34>  C   +1.356709   +0.000000   +0.000000
| 35>  C   +2.117971   -1.337724   +0.112102
| 36>  O   +2.023344   +1.035526   +0.000000
| 37>  H   +2.350655   -1.746784   -0.884810
| 38>  H   +1.591973   -2.096788   +0.709673
| 39>  O   +2.610660   +1.804186   +2.777421
| 40>  H   +1.992250   +2.572675   +2.637116
| 41>  N   +3.390913   -0.956562   +0.803010
| 42>  H   +4.153075   -1.636887   +0.682947
| 43>  H   +3.648427   -0.021234   +0.412240
| 44>  H   +3.191235   -0.770793   +1.851165
| 45> *
| 46> 
| 47>                          ****END OF INPUT****
================================================================================

                       *****************************
                       * Geometry Optimization Run *
                       *****************************

Geometry optimization settings:
Update method            Update   .... BFGS
Choice of coordinates    CoordSys .... Z-matrix Internals
Initial Hessian          InHess   .... Almoef's Model

Convergence Tolerances:
Energy Change            TolE     ....  2.0000e-07 Eh
Max. Gradient            TolMAXG  ....  3.0000e-05 Eh/bohr
RMS Gradient             TolRMSG  ....  8.0000e-06 Eh/bohr
Max. Displacement        TolMAXD  ....  2.0000e-04 bohr
RMS Displacement         TolRMSD  ....  1.0000e-04 bohr
Strict Convergence                ....  False
------------------------------------------------------------------------------
                        ORCA OPTIMIZATION COORDINATE SETUP
------------------------------------------------------------------------------

The optimization will be done in new redundant internal coordinates
Making redundant internal coordinates   ...  (new redundants) done
Evaluating the initial hessian          ...  (Is done on the fly) done
Evaluating the coordinates              ...  done
Calculating the B-matrix                .... done
Calculating the G-matrix                .... done
Diagonalizing the G-matrix              .... done
Small eigenvalue found = 7.906e-03
Small eigenvalue found = 1.899e-02
Small eigenvalue found = 2.324e-02
The first mode is                       ....   45
The number of degrees of freedom        ....   69

    -----------------------------------------------------------------
                    Redundant Internal Coordinates


    -----------------------------------------------------------------
         Definition                    Initial Value    d2E/dq (diagonal element)
    -----------------------------------------------------------------
      1. B(H   1,N   0)                  1.0192         0.000000   
      2. B(C   2,N   0)                  1.4668         0.000000   
      3. B(C   3,C   2)                  1.5312         0.000000   
      4. B(H   4,C   2)                  1.1008         0.000000   
      5. B(H   5,C   2)                  1.0979         0.000000   
      6. B(O   6,C   3)                  1.2357         0.000000   
      7. B(C   7,N   0)                  1.3744         0.000000   
      8. B(C   8,C   7)                  1.5460         0.000000   
      9. B(O   9,C   7)                  1.2288         0.000000   
     10. B(N  10,C   8)                  1.4741         0.000000   
     11. B(H  11,C   8)                  1.0996         0.000000   
     12. B(H  12,C   8)                  1.1009         0.000000   
     13. B(H  13,N  10)                  1.0194         0.000000   
     14. B(C  14,N  10)                  1.3567         0.000000   
     15. B(C  15,C  14)                  1.5432         0.000000   
     16. B(O  16,C  14)                  1.2316         0.000000   
     17. B(H  17,C  15)                  1.1024         0.000000   
     18. B(H  18,C  15)                  1.1000         0.000000   
     19. B(O  19,C   3)                  1.3251         0.000000   
     20. B(H  20,O  19)                  0.9963         0.000000   
     21. B(N  21,C  15)                  1.4977         0.000000   
     22. B(H  22,N  21)                  1.0287         0.000000   
     23. B(H  23,N  21)                  1.0459         0.000000   
     24. B(H  24,H  20)                  3.6379         0.000000   
     25. B(H  24,N  21)                  1.0831         0.000000   
     26. A(H   1,N   0,C   2)          116.6005         0.000000   
     27. A(C   2,N   0,C   7)          118.9572         0.000000   
     28. A(H   1,N   0,C   7)          118.6867         0.000000   
     29. A(C   3,C   2,H   5)          110.1766         0.000000   
     30. A(C   3,C   2,H   4)          112.4069         0.000000   
     31. A(N   0,C   2,H   4)          109.6546         0.000000   
     32. A(N   0,C   2,C   3)          104.6055         0.000000   
     33. A(N   0,C   2,H   5)          109.6882         0.000000   
     34. A(H   4,C   2,H   5)          110.1581         0.000000   
     35. A(O   6,C   3,O  19)          120.6207         0.000000   
     36. A(C   2,C   3,O  19)          117.3688         0.000000   
     37. A(C   2,C   3,O   6)          121.5092         0.000000   
     38. A(C   8,C   7,O   9)          123.3246         0.000000   
     39. A(N   0,C   7,O   9)          121.7548         0.000000   
     40. A(N   0,C   7,C   8)          114.6375         0.000000   
     41. A(C   7,C   8,H  11)          107.4065         0.000000   
     42. A(C   7,C   8,N  10)          107.6170         0.000000   
     43. A(H  11,C   8,H  12)          109.7992         0.000000   
     44. A(N  10,C   8,H  12)          108.5834         0.000000   
     45. A(C   7,C   8,H  12)          112.3873         0.000000   
     46. A(N  10,C   8,H  11)          111.0469         0.000000   
     47. A(H  13,N  10,C  14)          121.0518         0.000000   
     48. A(C   8,N  10,C  14)          118.2263         0.000000   
     49. A(C   8,N  10,H  13)          120.3416         0.000000   
     50. A(C  15,C  14,O  16)          117.5059         0.000000   
     51. A(N  10,C  14,O  16)          122.7720         0.000000   
     52. A(N  10,C  14,C  15)          119.5569         0.000000   
     53. A(H  17,C  15,H  18)          109.6421         0.000000   
     54. A(C  14,C  15,H  18)          113.6878         0.000000   
     55. A(C  14,C  15,H  17)          111.1047         0.000000   
     56. A(H  18,C  15,N  21)          109.3566         0.000000   
     57. A(H  17,C  15,N  21)          109.4032         0.000000   
     58. A(C  14,C  15,N  21)          103.4248         0.000000   
     59. A(C   3,O  19,H  20)          109.8675         0.000000   
     60. A(H  23,N  21,H  24)          104.6901         0.000000   
     61. A(H  22,N  21,H  24)          111.2844         0.000000   
     62. A(C  15,N  21,H  24)          109.4758         0.000000   
     63. A(H  22,N  21,H  23)          111.4337         0.000000   
     64. A(C  15,N  21,H  23)          105.3380         0.000000   
     65. A(C  15,N  21,H  22)          114.0531         0.000000   
     66. D(H   4,C   2,N   0,C   7)     54.5110         0.000000   
     67. D(H   5,C   2,N   0,C   7)    175.6055         0.000000   
     68. D(H   5,C   2,N   0,H   1)    -31.4401         0.000000   
     69. D(H   4,C   2,N   0,H   1)   -152.5346         0.000000   
     70. D(C   3,C   2,N   0,H   1)     86.7115         0.000000   
     71. D(C   3,C   2,N   0,C   7)    -66.2429         0.000000   
     72. D(O   6,C   3,C   2,H   4)    155.8873         0.000000   
     73. D(O  19,C   3,C   2,H   5)   -155.4630         0.000000   
     74. D(O  19,C   3,C   2,H   4)    -32.1896         0.000000   
     75. D(O   6,C   3,C   2,H   5)     32.6138         0.000000   
     76. D(O  19,C   3,C   2,N   0)     86.7187         0.000000   
     77. D(O   6,C   3,C   2,N   0)    -85.2045         0.000000   
     78. D(O   9,C   7,N   0,H   1)   -171.1038         0.000000   
     79. D(C   8,C   7,N   0,C   2)    155.3658         0.000000   
     80. D(C   8,C   7,N   0,H   1)      2.9761         0.000000   
     81. D(O   9,C   7,N   0,C   2)    -18.7141         0.000000   
     82. D(H  12,C   8,C   7,O   9)   -118.9604         0.000000   
     83. D(H  12,C   8,C   7,N   0)     67.0644         0.000000   
     84. D(H  11,C   8,C   7,O   9)      1.9070         0.000000   
     85. D(N  10,C   8,C   7,O   9)    121.5397         0.000000   
     86. D(N  10,C   8,C   7,N   0)    -52.4354         0.000000   
     87. D(H  11,C   8,C   7,N   0)   -172.0682         0.000000   
     88. D(C  14,N  10,C   8,H  12)   -179.6081         0.000000   
     89. D(C  14,N  10,C   8,H  11)     59.5762         0.000000   
     90. D(C  14,N  10,C   8,C   7)    -57.7140         0.000000   
     91. D(H  13,N  10,C   8,H  12)     -6.6123         0.000000   
     92. D(H  13,N  10,C   8,H  11)   -127.4280         0.000000   
     93. D(H  13,N  10,C   8,C   7)    115.2818         0.000000   
     94. D(O  16,C  14,N  10,C   8)    -11.0988         0.000000   
     95. D(C  15,C  14,N  10,H  13)     -8.8328         0.000000   
     96. D(C  15,C  14,N  10,C   8)    164.1110         0.000000   
     97. D(O  16,C  14,N  10,H  13)    175.9574         0.000000   
     98. D(N  21,C  15,C  14,O  16)     25.0946         0.000000   
     99. D(N  21,C  15,C  14,N  10)   -150.3649         0.000000   
    100. D(H  18,C  15,C  14,O  16)    143.5728         0.000000   
    101. D(H  18,C  15,C  14,N  10)    -31.8866         0.000000   
    102. D(H  17,C  15,C  14,O  16)    -92.1783         0.000000   
    103. D(H  17,C  15,C  14,N  10)     92.3623         0.000000   
    104. D(H  20,O  19,C   3,O   6)    159.4576         0.000000   
    105. D(H  20,O  19,C   3,C   2)    -12.5411         0.000000   
    106. D(H  24,N  21,C  15,H  18)    -47.0505         0.000000   
    107. D(H  24,N  21,C  15,H  17)   -167.1479         0.000000   
    108. D(H  24,N  21,C  15,C  14)     74.3917         0.000000   
    109. D(H  23,N  21,C  15,H  18)   -159.1312         0.000000   
    110. D(H  23,N  21,C  15,H  17)     80.7714         0.000000   
    111. D(H  23,N  21,C  15,C  14)    -37.6891         0.000000   
    112. D(H  22,N  21,C  15,H  18)     78.3637         0.000000   
    113. D(H  22,N  21,C  15,H  17)    -41.7337         0.000000   
    114. D(H  22,N  21,C  15,C  14)   -160.1941         0.000000   
    -----------------------------------------------------------------

Number of atoms                         .... 25
Number of degrees of freedom            .... 114

         *************************************************************
         *                GEOMETRY OPTIMIZATION CYCLE   1            *
         *************************************************************
---------------------------------
CARTESIAN COORDINATES (ANGSTROEM)
---------------------------------
  N     -0.335809    0.902660    2.654582
  H     -0.665394   -0.039302    2.447372
  C      0.536549    1.050760    3.824455
  C      1.946214    0.779552    3.291729
  H      0.432288    2.065600    4.237958
  H      0.268138    0.303725    4.582955
  O      2.392631   -0.369144    3.201588
  C     -0.224997    1.804569    1.623458
  C     -0.697183    1.274517    0.250022
  O      0.314371    2.898035    1.775911
  N      0.000000    0.000000    0.000000
  H     -0.426080    2.027464   -0.504040
  H     -1.782526    1.092191    0.221529
  H     -0.525828   -0.871162   -0.061568
  C      1.356709    0.000000    0.000000
  C      2.117971   -1.337724    0.112102
  O      2.023344    1.035526    0.000000
  H      2.350655   -1.746784   -0.884810
  H      1.591973   -2.096788    0.709673
  O      2.610660    1.804186    2.777421
  H      1.992250    2.572675    2.637116
  N      3.390913   -0.956562    0.803010
  H      4.153075   -1.636887    0.682947
  H      3.648427   -0.021234    0.412240
  H      3.191235   -0.770793    1.851165

----------------------------
CARTESIAN COORDINATES (A.U.)
----------------------------
  NO LB      ZA    FRAG     MASS         X           Y           Z
   0 N     7.0000    0    14.007   -0.634587    1.705780    5.016433
   1 H     1.0000    0     1.008   -1.257412   -0.074270    4.624863
   2 C     6.0000    0    12.011    1.013931    1.985649    7.227173
   3 C     6.0000    0    12.011    3.677811    1.473140    6.220466
   4 H     1.0000    0     1.008    0.816906    3.903418    8.008580
   5 H     1.0000    0     1.008    0.506707    0.573957    8.660530
   6 O     8.0000    0    15.999    4.521417   -0.697581    6.050125
   7 C     6.0000    0    12.011   -0.425183    3.410141    3.067891
   8 C     6.0000    0    12.011   -1.317485    2.408488    0.472473
   9 O     8.0000    0    15.999    0.594075    5.476492    3.355985
  10 N     7.0000    0    14.007    0.000000    0.000000    0.000000
  11 H     1.0000    0     1.008   -0.805175    3.831352   -0.952498
  12 H     1.0000    0     1.008   -3.368486    2.063942    0.418629
  13 H     1.0000    0     1.008   -0.993671   -1.646258   -0.116347
  14 C     6.0000    0    12.011    2.563808    0.000000    0.000000
  15 C     6.0000    0    12.011    4.002385   -2.527932    0.211842
  16 O     8.0000    0    15.999    3.823566    1.956861    0.000000
  17 H     1.0000    0     1.008    4.442094   -3.300943   -1.672049
  18 H     1.0000    0     1.008    3.008393   -3.962355    1.341088
  19 O     8.0000    0    15.999    4.933432    3.409417    5.248565
  20 H     1.0000    0     1.008    3.764807    4.861651    4.983427
  21 N     7.0000    0    14.007    6.407897   -1.807640    1.517469
  22 H     1.0000    0     1.008    7.848174   -3.093268    1.290583
  23 H     1.0000    0     1.008    6.894528   -0.040126    0.779021
  24 H     1.0000    0     1.008    6.030560   -1.456588    3.498195

--------------------------------
INTERNAL COORDINATES (ANGSTROEM)
--------------------------------
 N      0   0   0     0.000000000000     0.00000000     0.00000000
 H      1   0   0     1.019242201721     0.00000000     0.00000000
 C      1   2   0     1.466814550750   116.60054168     0.00000000
 C      3   1   2     1.531178037514   104.60549999    86.71148878
 H      3   1   2     1.100797580271   109.65457644   207.46535892
 H      3   1   2     1.097919854154   109.68824762   328.55989010
 O      4   3   1     1.235684441185   121.50921708   274.79551572
 C      1   2   3     1.374385625289   118.68668396   153.03023223
 C      8   1   2     1.546040486985   114.63747966     2.97609787
 O      8   1   2     1.228750442437   121.75476330   188.89617333
 N      9   8   1     1.474099290842   107.61696718   307.56459278
 H      9   8   1     1.099561513178   107.40651419   187.93184091
 H      9   8   1     1.100919637836   112.38734035    67.06443370
 H     11   9   8     1.019415977142   120.34160162   115.28183683
 C     11   9   8     1.356709000000   118.22629991   302.28604795
 C     15  11   9     1.543240807918   119.55691502   164.11099953
 O     15  11   9     1.231550372458   122.77200142   348.90122482
 H     16  15  11     1.102408936466   111.10472112    92.36225205
 H     16  15  11     1.099974159761   113.68777519   328.11337952
 O      4   3   1     1.325094728590   117.36875328    86.71866074
 H     20   4   3     0.996339181326   109.86750650   347.45886110
 N     16  15  11     1.497671415923   103.42481089   209.63510073
 H     22  16  15     1.028663280106   114.05306399   199.80589165
 H     22  16  15     1.045874333120   105.33797618   322.31094457
 H     22  16  15     1.083056013819   109.47575032    74.39169680

---------------------------
INTERNAL COORDINATES (A.U.)
---------------------------
 N      0   0   0     0.000000000000     0.00000000     0.00000000
 H      1   0   0     1.926088625388     0.00000000     0.00000000
 C      1   2   0     2.771877790169   116.60054168     0.00000000
 C      3   1   2     2.893507153176   104.60549999    86.71148878
 H      3   1   2     2.080205955595   109.65457644   207.46535892
 H      3   1   2     2.074767841346   109.68824762   328.55989010
 O      4   3   1     2.335105181787   121.50921708   274.79551572
 C      1   2   3     2.597212434194   118.68668396   153.03023223
 C      8   1   2     2.921593112355   114.63747966     2.97609787
 O      8   1   2     2.322001823140   121.75476330   188.89617333
 N      9   8   1     2.785643953900   107.61696718   307.56459278
 H      9   8   1     2.077870127306   107.40651419   187.93184091
 H      9   8   1     2.080436610967   112.38734035    67.06443370
 H     11   9   8     1.926417013342   120.34160162   115.28183683
 C     11   9   8     2.563808453426   118.22629991   302.28604795
 C     15  11   9     2.916302485657   119.55691502   164.11099953
 O     15  11   9     2.327292924074   122.77200142   348.90122482
 H     16  15  11     2.083250977508   111.10472112    92.36225205
 H     16  15  11     2.078649916338   113.68777519   328.11337952
 O      4   3   1     2.504066138537   117.36875328    86.71866074
 H     20   4   3     1.882808189202   109.86750650   347.45886110
 N     16  15  11     2.830188814696   103.42481089   209.63510073
 H     22  16  15     1.943891883421   114.05306399   199.80589165
 H     22  16  15     1.976416060095   105.33797618   322.31094457
 H     22  16  15     2.046679253815   109.47575032    74.39169680

---------------------
BASIS SET INFORMATION
---------------------
There are 4 groups of distinct atoms

 Group   1 Type N   : 11s6p2d1f contracted to 5s3p2d1f pattern {62111/411/11/1}
 Group   2 Type H   : 5s2p1d contracted to 3s2p1d pattern {311/11/1}
 Group   3 Type C   : 11s6p2d1f contracted to 5s3p2d1f pattern {62111/411/11/1}
 Group   4 Type O   : 11s6p2d1f contracted to 5s3p2d1f pattern {62111/411/11/1}

Atom   0N    basis set group =>   1
Atom   1H    basis set group =>   2
Atom   2C    basis set group =>   3
Atom   3C    basis set group =>   3
Atom   4H    basis set group =>   2
Atom   5H    basis set group =>   2
Atom   6O    basis set group =>   4
Atom   7C    basis set group =>   3
Atom   8C    basis set group =>   3
Atom   9O    basis set group =>   4
Atom  10N    basis set group =>   1
Atom  11H    basis set group =>   2
Atom  12H    basis set group =>   2
Atom  13H    basis set group =>   2
Atom  14C    basis set group =>   3
Atom  15C    basis set group =>   3
Atom  16O    basis set group =>   4
Atom  17H    basis set group =>   2
Atom  18H    basis set group =>   2
Atom  19O    basis set group =>   4
Atom  20H    basis set group =>   2
Atom  21N    basis set group =>   1
Atom  22H    basis set group =>   2
Atom  23H    basis set group =>   2
Atom  24H    basis set group =>   2
---------------------------------
AUXILIARY/J BASIS SET INFORMATION
---------------------------------
There are 4 groups of distinct atoms

 Group   1 Type N   : 12s5p4d2f1g contracted to 6s4p3d1f1g pattern {711111/2111/211/2/1}
 Group   2 Type H   : 5s2p1d contracted to 3s1p1d pattern {311/2/1}
 Group   3 Type C   : 12s5p4d2f1g contracted to 6s4p3d1f1g pattern {711111/2111/211/2/1}
 Group   4 Type O   : 12s5p4d2f1g contracted to 6s4p3d1f1g pattern {711111/2111/211/2/1}

Atom   0N    basis set group =>   1
Atom   1H    basis set group =>   2
Atom   2C    basis set group =>   3
Atom   3C    basis set group =>   3
Atom   4H    basis set group =>   2
Atom   5H    basis set group =>   2
Atom   6O    basis set group =>   4
Atom   7C    basis set group =>   3
Atom   8C    basis set group =>   3
Atom   9O    basis set group =>   4
Atom  10N    basis set group =>   1
Atom  11H    basis set group =>   2
Atom  12H    basis set group =>   2
Atom  13H    basis set group =>   2
Atom  14C    basis set group =>   3
Atom  15C    basis set group =>   3
Atom  16O    basis set group =>   4
Atom  17H    basis set group =>   2
Atom  18H    basis set group =>   2
Atom  19O    basis set group =>   4
Atom  20H    basis set group =>   2
Atom  21N    basis set group =>   1
Atom  22H    basis set group =>   2
Atom  23H    basis set group =>   2
Atom  24H    basis set group =>   2


           ************************************************************
           *        Program running with 8 parallel MPI-processes     *
           *              working on a common directory               *
           ************************************************************
------------------------------------------------------------------------------
                           ORCA GTO INTEGRAL CALCULATION
                           -- RI-GTO INTEGRALS CHOSEN --
------------------------------------------------------------------------------
------------------------------------------------------------------------------
                   ___                                                        
                  /   \      - P O W E R E D   B Y -                         
                 /     \                                                     
                 |  |  |   _    _      __       _____    __    __             
                 |  |  |  | |  | |    /  \     |  _  \  |  |  /  |          
                  \  \/   | |  | |   /    \    | | | |  |  | /  /          
                 / \  \   | |__| |  /  /\  \   | |_| |  |  |/  /          
                |  |  |   |  __  | /  /__\  \  |    /   |      \           
                |  |  |   | |  | | |   __   |  |    \   |  |\   \          
                \     /   | |  | | |  |  |  |  | |\  \  |  | \   \       
                 \___/    |_|  |_| |__|  |__|  |_| \__\ |__|  \__/        
                                                                              
                      - O R C A' S   B I G   F R I E N D -                    
                                      &                                       
                       - I N T E G R A L  F E E D E R -                       
                                                                              
 v1 FN, 2020, v2 2021                                                         
------------------------------------------------------------------------------


Reading SHARK input file GGG-H_tt_023_OptFreq.SHARKINP.tmp ... ok
----------------------
SHARK INTEGRAL PACKAGE
----------------------

Number of atoms                             ...     25
Number of basis functions                   ...    571
Number of shells                            ...    215
Maximum angular momentum                    ...      3
Integral batch strategy                     ... SHARK/LIBINT Hybrid
RI-J (if used) integral strategy            ... SPLIT-RIJ (Revised 2003 algorithm where possible)
Printlevel                                  ...      1
Contraction scheme used                     ... SEGMENTED contraction
Coulomb Range Separation                    ... NOT USED
Exchange Range Separation                   ... Long Range
   Mu parameter                             ...  0.300000
   Scaling (regular/separated)              ...  0.167000  0.833000
Finite Nucleus Model                        ... NOT USED
Auxiliary Coulomb fitting basis             ... AVAILABLE
   # of basis functions in Aux-J            ...    769
   # of shells in Aux-J                     ...    255
   Maximum angular momentum in Aux-J        ...      4
Auxiliary J/K fitting basis                 ... NOT available
Auxiliary Correlation fitting basis         ... NOT available
Auxiliary 'external' fitting basis          ... NOT available
Integral threshold                          ...     1.000000e-12
Primitive cut-off                           ...     1.000000e-14
Primitive pair pre-selection threshold      ...     1.000000e-14

Calculating pre-screening integrals         ... done (  0.0 sec) Dimension = 215
Organizing shell pair data                  ... done (  0.2 sec)
Shell pair information
Total number of shell pairs                 ...     23220
Shell pairs after pre-screening             ...     20560
Total number of primitive shell pairs       ...     63868
Primitive shell pairs kept                  ...     41649
          la=0 lb=0:   4439 shell pairs
          la=1 lb=0:   5742 shell pairs
          la=1 lb=1:   1883 shell pairs
          la=2 lb=0:   3258 shell pairs
          la=2 lb=1:   2163 shell pairs
          la=2 lb=2:    630 shell pairs
          la=3 lb=0:   1145 shell pairs
          la=3 lb=1:    766 shell pairs
          la=3 lb=2:    446 shell pairs
          la=3 lb=3:     88 shell pairs

Calculating one electron integrals          ... done (  0.0 sec)
Calculating RI/J V-Matrix + Cholesky decomp.... done (  0.3 sec)
Calculating Nuclear repulsion               ... done (  0.1 sec) ENN=    921.520841891324 Eh

SHARK setup successfully completed in   1.8 seconds

Maximum memory used throughout the entire GTOINT-calculation: 32.3 MB


           ************************************************************
           *        Program running with 8 parallel MPI-processes     *
           *              working on a common directory               *
           ************************************************************
-------------------------------------------------------------------------------
                                 ORCA SCF
-------------------------------------------------------------------------------

------------
SCF SETTINGS
------------
Hamiltonian:
 Density Functional     Method          .... DFT(GTOs)
 Exchange Functional    Exchange        .... WB97X-V
 Correlation Functional Correlation     .... WB97X-V
 Gradients option       PostSCFGGA      .... off
 Hybrid DFT is turned on
   Fraction HF Exchange ScalHFX         ....  0.167000
   Scaling of DF-GGA-X  ScalDFX         ....  0.000000
   Scaling of DF-GGA-C  ScalDFC         ....  1.000000
   Scaling of DF-LDA-C  ScalLDAC        ....  1.000000
   Perturbative correction              ....  0.000000
   Density functional embedding theory  .... OFF
 Long-range corrected/Screened/Range-Separated Hybrid DFT is turned on
   Amount of maximum screened exact exchange              ....  0.833000
   Range separation parameter mu (erf(mu*r12)/r12)        ....  0.300000
 RI-approximation to the Coulomb term is turned on
   Number of AuxJ basis functions       .... 769
   RIJ-COSX (HFX calculated with COS-X)).... on


General Settings:
 Integral files         IntName         .... GGG-H_tt_023_OptFreq
 Hartree-Fock type      HFTyp           .... RHF
 Total Charge           Charge          ....    1
 Multiplicity           Mult            ....    1
 Number of Electrons    NEL             ....  100
 Basis Dimension        Dim             ....  571
 Nuclear Repulsion      ENuc            ....    921.5208418913 Eh

Convergence Acceleration:
 DIIS                   CNVDIIS         .... on
   Start iteration      DIISMaxIt       ....    12
   Startup error        DIISStart       ....  0.200000
   # of expansion vecs  DIISMaxEq       ....     5
   Bias factor          DIISBfac        ....   1.050
   Max. coefficient     DIISMaxC        ....  10.000
 Trust-Rad. Augm. Hess. CNVTRAH         .... auto
   Auto Start mean grad. ratio tolernc. ....  1.125000
   Auto Start start iteration           ....    20
   Auto Start num. interpolation iter.  ....    10
   Max. Number of Micro iterations      ....    16
   Max. Number of Macro iterations      .... Maxiter - #DIIS iter
   Number of Davidson start vectors     ....     2
   Converg. threshold I  (grad. norm)   ....   2.000e-06
   Converg. threshold II (energy diff.) ....   1.000e-09
   Grad. Scal. Fac. for Micro threshold ....   0.100
   Minimum threshold for Micro iter.    ....   0.010
   NR start threshold (gradient norm)   ....   0.001
   Initial trust radius                 ....   0.400
   Minimum AH scaling param. (alpha)    ....   1.000
   Maximum AH scaling param. (alpha)    .... 1000.000
   Orbital update algorithm             .... Taylor
   White noise on init. David. guess    .... on
   Maximum white noise                  ....   0.010
   Quad. conv. algorithm                .... NR
 SOSCF                  CNVSOSCF        .... on
   Start iteration      SOSCFMaxIt      ....   150
   Startup grad/error   SOSCFStart      ....  0.003300
 Level Shifting         CNVShift        .... on
   Level shift para.    LevelShift      ....    0.2500
   Turn off err/grad.   ShiftErr        ....    0.0010
 Zerner damping         CNVZerner       .... off
 Static damping         CNVDamp         .... on
   Fraction old density DampFac         ....    0.7000
   Max. Damping (<1)    DampMax         ....    0.9800
   Min. Damping (>=0)   DampMin         ....    0.0000
   Turn off err/grad.   DampErr         ....    0.1000
 Fernandez-Rico         CNVRico         .... off

SCF Procedure:
 Maximum # iterations   MaxIter         ....   125
 SCF integral mode      SCFMode         .... Direct
   Integral package                     .... SHARK and LIBINT hybrid scheme
 Reset frequency        DirectResetFreq ....    20
 Integral Threshold     Thresh          ....  1.000e-12 Eh
 Primitive CutOff       TCut            ....  1.000e-14 Eh

Convergence Tolerance:
 Convergence Check Mode ConvCheckMode   .... Total+1el-Energy
 Convergence forced     ConvForced      .... 0
 Energy Change          TolE            ....  1.000e-09 Eh
 1-El. energy change                    ....  1.000e-06 Eh
 Orbital Gradient       TolG            ....  2.000e-06
 Orbital Rotation angle TolX            ....  2.000e-06
 DIIS Error             TolErr          ....  1.000e-08


Diagonalization of the overlap matrix:
Smallest eigenvalue                        ... 1.157e-04
Time for diagonalization                   ...    0.152 sec
Threshold for overlap eigenvalues          ... 1.000e-08
Number of eigenvalues below threshold      ... 0
Time for construction of square roots      ...    0.371 sec
Total time needed                          ...    0.737 sec

Time for model grid setup =    0.793 sec

------------------------------
INITIAL GUESS: MODEL POTENTIAL
------------------------------
Loading Hartree-Fock densities                     ... done
Calculating cut-offs                               ... done
Initializing the effective Hamiltonian             ... done
Setting up the integral package (SHARK)            ... done
Starting the Coulomb interaction                   ... done (   0.4 sec)
Reading the grid                                   ... done
Mapping shells                                     ... done
Starting the XC term evaluation                    ... done (   0.2 sec)
  promolecular density results
     # of electrons  =    100.989844030
     EX              =    -58.968906083
     EC              =     -4.275119027
     EX+EC           =    -63.244025110
Transforming the Hamiltonian                       ... done (   0.0 sec)
Diagonalizing the Hamiltonian                      ... done (   0.0 sec)
Back transforming the eigenvectors                 ... done (   0.0 sec)
Now organizing SCF variables                       ... done
                      ------------------
                      INITIAL GUESS DONE (   1.4 sec)
                      ------------------
-------------------
DFT GRID GENERATION
-------------------

General Integration Accuracy     IntAcc      ... 4.959
Radial Grid Type                 RadialGrid  ... OptM3 with GC (2021)
Angular Grid (max. ang.)         AngularGrid ... 6 (Lebedev-590)
Angular grid pruning method      GridPruning ... 4 (adaptive)
Weight generation scheme         WeightScheme... Becke
Basis function cutoff            BFCut       ... 1.0000e-12
Integration weight cutoff        WCut        ... 1.0000e-14
Angular grids for H and He will be reduced by one unit
Partially contracted basis set               ... off
Rotationally invariant grid construction     ... off

Total number of grid points                  ...   287903
Total number of batches                      ...     4512
Average number of points per batch           ...       63
Average number of grid points per atom       ...    11516
Time for grid setup =    3.367 sec

--------------------
COSX GRID GENERATION
--------------------

GRIDX 1
-------
General Integration Accuracy     IntAcc      ... 4.020
Radial Grid Type                 RadialGrid  ... OptM3 with GC (2021)
Angular Grid (max. ang.)         AngularGrid ... 2 (Lebedev-110)
Angular grid pruning method      GridPruning ... 4 (adaptive)
Weight generation scheme         WeightScheme... Becke
Basis function cutoff            BFCut       ... 1.0000e-12
Integration weight cutoff        WCut        ... 1.0000e-14
Angular grids for H and He will be reduced by one unit
Partially contracted basis set               ... on
Rotationally invariant grid construction     ... off

Total number of grid points                  ...    31947
Total number of batches                      ...      513
Average number of points per batch           ...       62
Average number of grid points per atom       ...     1278
UseSFitting                                  ... on

GRIDX 2
-------
General Integration Accuracy     IntAcc      ... 4.338
Radial Grid Type                 RadialGrid  ... OptM3 with GC (2021)
Angular Grid (max. ang.)         AngularGrid ... 3 (Lebedev-194)
Angular grid pruning method      GridPruning ... 4 (adaptive)
Weight generation scheme         WeightScheme... Becke
Basis function cutoff            BFCut       ... 1.0000e-12
Integration weight cutoff        WCut        ... 1.0000e-14
Angular grids for H and He will be reduced by one unit
Partially contracted basis set               ... on
Rotationally invariant grid construction     ... off

Total number of grid points                  ...    69950
Total number of batches                      ...     1106
Average number of points per batch           ...       63
Average number of grid points per atom       ...     2798
UseSFitting                                  ... on

GRIDX 3
-------
General Integration Accuracy     IntAcc      ... 4.871
Radial Grid Type                 RadialGrid  ... OptM3 with GC (2021)
Angular Grid (max. ang.)         AngularGrid ... 4 (Lebedev-302)
Angular grid pruning method      GridPruning ... 4 (adaptive)
Weight generation scheme         WeightScheme... Becke
Basis function cutoff            BFCut       ... 1.0000e-12
Integration weight cutoff        WCut        ... 1.0000e-14
Angular grids for H and He will be reduced by one unit
Partially contracted basis set               ... on
Rotationally invariant grid construction     ... off

Total number of grid points                  ...   132361
Total number of batches                      ...     2084
Average number of points per batch           ...       63
Average number of grid points per atom       ...     5294
UseSFitting                                  ... on

Time for X-Grid setup             =    2.859 sec

--------------
SCF ITERATIONS
--------------
ITER       Energy         Delta-E        Max-DP      RMS-DP      [F,P]     Damp
               ***  Starting incremental Fock matrix formation  ***
  0   -701.1511627401   0.000000000000 0.03278945  0.00049473  0.3421855 0.7000
  1   -701.2005537217  -0.049390981580 0.02970647  0.00044795  0.2344180 0.7000
                               ***Turning on DIIS***
  2   -701.2289852598  -0.028431538156 0.02474561  0.00034513  0.1624640 0.7000
  3   -701.2475741803  -0.018588920514 0.02059449  0.00027110  0.1119985 0.7000
  4   -701.2606048319  -0.013030651582 0.05473417  0.00071337  0.0773542 0.0000
                      *** Initiating the SOSCF procedure ***
                           *** Shutting down DIIS ***
                      *** Re-Reading the Fockian *** 
                      *** Removing any level shift *** 
ITER      Energy       Delta-E        Grad      Rot      Max-DP    RMS-DP
  5   -701.29197513  -0.0313702941  0.001354  0.001354  0.006467  0.000074
               *** Restarting incremental Fock matrix formation ***
  6   -701.29211518  -0.0001400491  0.000758  0.001681  0.004054  0.000045
  7   -701.29215497  -0.0000397920  0.000350  0.001618  0.003221  0.000035
  8   -701.29216361  -0.0000086421  0.000152  0.000291  0.000826  0.000010
  9   -701.29216600  -0.0000023902  0.000084  0.000099  0.000542  0.000006
 10   -701.29216624  -0.0000002424  0.000028  0.000051  0.000206  0.000002
 11   -701.29216637  -0.0000001326  0.000008  0.000027  0.000022  0.000000
 12   -701.29216638  -0.0000000035  0.000006  0.000006  0.000022  0.000000
 13   -701.29216638  -0.0000000034  0.000002  0.000004  0.000006  0.000000
 14   -701.29216638   0.0000000001  0.000002  0.000002  0.000003  0.000000
                  ***Gradient check signals convergence***
              ***Rediagonalizing the Fockian in SOSCF/NRSCF***

               *****************************************************
               *                     SUCCESS                       *
               *           SCF CONVERGED AFTER  15 CYCLES          *
               *****************************************************

Old exchange energy                            =    -27.829658584 Eh
New exchange energy                            =    -27.829658742 Eh
Exchange energy change after final integration =     -0.000000158 Eh
Total energy after final integration           =   -701.292166539 Eh
Final COS-X integration done in                =    34.860 sec

----------------
TOTAL SCF ENERGY
----------------

Total Energy       :         -701.29216654 Eh          -19083.13002 eV

Components:
Nuclear Repulsion  :          921.52084189 Eh           25075.85694 eV
Electronic Energy  :        -1622.81300843 Eh          -44158.98696 eV
One Electron Energy:        -2770.80531665 Eh          -75397.44580 eV
Two Electron Energy:         1147.99230822 Eh           31238.45884 eV
Max COSX asymmetry :            0.00000071 Eh               0.00002 eV

Virial components:
Potential Energy   :        -1399.24911823 Eh          -38075.50423 eV
Kinetic Energy     :          697.95695169 Eh           18992.37421 eV
Virial Ratio       :            2.00477854


DFT components:
N(Alpha)           :       50.000012157313 electrons
N(Beta)            :       50.000012157313 electrons
N(Total)           :      100.000024314627 electrons
E(X)               :      -60.044009070229 Eh       
E(C)               :       -4.270873956494 Eh       
E(XC)              :      -64.314883026723 Eh       
DFET-embed. en.    :        0.000000000000 Eh       

---------------
SCF CONVERGENCE
---------------

  Last Energy change         ...   -4.4110e-11  Tolerance :   1.0000e-09
  Last MAX-Density change    ...    1.8874e-15  Tolerance :   1.0000e-08
  Last RMS-Density change    ...    1.2016e-17  Tolerance :   1.0000e-09
  Last Orbital Gradient      ...    2.8208e-07  Tolerance :   2.0000e-06
  Last Orbital Rotation      ...    8.2464e-07  Tolerance :   2.0000e-06

             **** THE GBW FILE WAS UPDATED (GGG-H_tt_023_OptFreq.gbw) ****
             **** DENSITY GGG-H_tt_023_OptFreq.scfp WAS UPDATED ****
             **** ENERGY FILE WAS UPDATED (GGG-H_tt_023_OptFreq.en.tmp) ****
             **** THE GBW FILE WAS UPDATED (GGG-H_tt_023_OptFreq.gbw) ****
             **** DENSITY GGG-H_tt_023_OptFreq.scfp WAS UPDATED ****
----------------
ORBITAL ENERGIES
----------------

  NO   OCC          E(Eh)            E(eV) 
   0   2.0000     -19.405521      -528.0511 
   1   2.0000     -19.365319      -526.9571 
   2   2.0000     -19.359269      -526.7925 
   3   2.0000     -19.337689      -526.2053 
   4   2.0000     -14.679285      -399.4436 
   5   2.0000     -14.616957      -397.7476 
   6   2.0000     -14.596993      -397.2044 
   7   2.0000     -10.570145      -287.6283 
   8   2.0000     -10.559497      -287.3385 
   9   2.0000     -10.535021      -286.6725 
  10   2.0000     -10.516762      -286.1756 
  11   2.0000     -10.476665      -285.0846 
  12   2.0000     -10.474075      -285.0141 
  13   2.0000      -1.391433       -37.8628 
  14   2.0000      -1.356441       -36.9106 
  15   2.0000      -1.325835       -36.0778 
  16   2.0000      -1.303282       -35.4641 
  17   2.0000      -1.276810       -34.7438 
  18   2.0000      -1.232493       -33.5378 
  19   2.0000      -1.209334       -32.9077 
  20   2.0000      -1.061108       -28.8742 
  21   2.0000      -1.025035       -27.8926 
  22   2.0000      -0.987199       -26.8631 
  23   2.0000      -0.895144       -24.3581 
  24   2.0000      -0.884161       -24.0592 
  25   2.0000      -0.874097       -23.7854 
  26   2.0000      -0.856313       -23.3015 
  27   2.0000      -0.851883       -23.1809 
  28   2.0000      -0.811931       -22.0938 
  29   2.0000      -0.807275       -21.9671 
  30   2.0000      -0.781086       -21.2544 
  31   2.0000      -0.767452       -20.8834 
  32   2.0000      -0.754954       -20.5433 
  33   2.0000      -0.736985       -20.0544 
  34   2.0000      -0.736642       -20.0451 
  35   2.0000      -0.723194       -19.6791 
  36   2.0000      -0.703374       -19.1398 
  37   2.0000      -0.688327       -18.7303 
  38   2.0000      -0.679523       -18.4907 
  39   2.0000      -0.670573       -18.2472 
  40   2.0000      -0.664500       -18.0820 
  41   2.0000      -0.652048       -17.7431 
  42   2.0000      -0.638396       -17.3716 
  43   2.0000      -0.634106       -17.2549 
  44   2.0000      -0.582085       -15.8393 
  45   2.0000      -0.564641       -15.3647 
  46   2.0000      -0.553057       -15.0494 
  47   2.0000      -0.548839       -14.9347 
  48   2.0000      -0.513860       -13.9828 
  49   2.0000      -0.511580       -13.9208 
  50   0.0000      -0.085669        -2.3312 
  51   0.0000      -0.077163        -2.0997 
  52   0.0000      -0.063466        -1.7270 
  53   0.0000      -0.055581        -1.5124 
  54   0.0000      -0.041887        -1.1398 
  55   0.0000      -0.008308        -0.2261 
  56   0.0000       0.006480         0.1763 
  57   0.0000       0.013093         0.3563 
  58   0.0000       0.019758         0.5376 
  59   0.0000       0.022417         0.6100 
  60   0.0000       0.030009         0.8166 
  61   0.0000       0.053440         1.4542 
  62   0.0000       0.062651         1.7048 
  63   0.0000       0.065727         1.7885 
  64   0.0000       0.073797         2.0081 
  65   0.0000       0.076453         2.0804 
  66   0.0000       0.089760         2.4425 
  67   0.0000       0.091963         2.5025 
  68   0.0000       0.102075         2.7776 
  69   0.0000       0.104305         2.8383 
  70   0.0000       0.118867         3.2345 
  71   0.0000       0.130093         3.5400 
  72   0.0000       0.139181         3.7873 
  73   0.0000       0.151329         4.1179 
  74   0.0000       0.164238         4.4691 
  75   0.0000       0.172851         4.7035 
  76   0.0000       0.176840         4.8121 
  77   0.0000       0.187334         5.0976 
  78   0.0000       0.193439         5.2637 
  79   0.0000       0.202413         5.5079 
  80   0.0000       0.212476         5.7818 
  81   0.0000       0.221624         6.0307 
  82   0.0000       0.234912         6.3923 
  83   0.0000       0.245265         6.6740 
  84   0.0000       0.256307         6.9745 
  85   0.0000       0.267713         7.2848 
  86   0.0000       0.273813         7.4508 
  87   0.0000       0.285409         7.7664 
  88   0.0000       0.288745         7.8571 
  89   0.0000       0.293373         7.9831 
  90   0.0000       0.301072         8.1926 
  91   0.0000       0.316368         8.6088 
  92   0.0000       0.318954         8.6792 
  93   0.0000       0.322284         8.7698 
  94   0.0000       0.329026         8.9532 
  95   0.0000       0.337183         9.1752 
  96   0.0000       0.340099         9.2546 
  97   0.0000       0.343215         9.3394 
  98   0.0000       0.350693         9.5428 
  99   0.0000       0.356449         9.6995 
 100   0.0000       0.360212         9.8019 
 101   0.0000       0.367681        10.0051 
 102   0.0000       0.376284        10.2392 
 103   0.0000       0.381398        10.3784 
 104   0.0000       0.384737        10.4692 
 105   0.0000       0.391082        10.6419 
 106   0.0000       0.401219        10.9177 
 107   0.0000       0.411184        11.1889 
 108   0.0000       0.412734        11.2311 
 109   0.0000       0.418525        11.3886 
 110   0.0000       0.426737        11.6121 
 111   0.0000       0.440952        11.9989 
 112   0.0000       0.463927        12.6241 
 113   0.0000       0.465681        12.6718 
 114   0.0000       0.476631        12.9698 
 115   0.0000       0.480253        13.0684 
 116   0.0000       0.487640        13.2694 
 117   0.0000       0.504978        13.7412 
 118   0.0000       0.507582        13.8120 
 119   0.0000       0.515316        14.0225 
 120   0.0000       0.527174        14.3451 
 121   0.0000       0.540594        14.7103 
 122   0.0000       0.552245        15.0274 
 123   0.0000       0.565207        15.3801 
 124   0.0000       0.565542        15.3892 
 125   0.0000       0.582889        15.8612 
 126   0.0000       0.593415        16.1476 
 127   0.0000       0.604236        16.4421 
 128   0.0000       0.606299        16.4982 
 129   0.0000       0.629450        17.1282 
 130   0.0000       0.646519        17.5927 
 131   0.0000       0.649233        17.6665 
 132   0.0000       0.671714        18.2783 
 133   0.0000       0.684589        18.6286 
 134   0.0000       0.695506        18.9257 
 135   0.0000       0.719270        19.5723 
 136   0.0000       0.724334        19.7101 
 137   0.0000       0.733192        19.9512 
 138   0.0000       0.743089        20.2205 
 139   0.0000       0.749600        20.3977 
 140   0.0000       0.756702        20.5909 
 141   0.0000       0.767476        20.8841 
 142   0.0000       0.782542        21.2940 
 143   0.0000       0.796721        21.6799 
 144   0.0000       0.803997        21.8779 
 145   0.0000       0.809429        22.0257 
 146   0.0000       0.819735        22.3061 
 147   0.0000       0.830057        22.5870 
 148   0.0000       0.843821        22.9615 
 149   0.0000       0.854749        23.2589 
 150   0.0000       0.867563        23.6076 
 151   0.0000       0.872230        23.7346 
 152   0.0000       0.886100        24.1120 
 153   0.0000       0.893674        24.3181 
 154   0.0000       0.902757        24.5653 
 155   0.0000       0.911718        24.8091 
 156   0.0000       0.914970        24.8976 
 157   0.0000       0.935210        25.4484 
 158   0.0000       0.945066        25.7166 
 159   0.0000       0.958275        26.0760 
 160   0.0000       0.964729        26.2516 
 161   0.0000       0.980526        26.6815 
 162   0.0000       0.993602        27.0373 
 163   0.0000       1.006512        27.3886 
 164   0.0000       1.011784        27.5320 
 165   0.0000       1.019924        27.7535 
 166   0.0000       1.024016        27.8649 
 167   0.0000       1.030619        28.0446 
 168   0.0000       1.035485        28.1770 
 169   0.0000       1.048334        28.5266 
 170   0.0000       1.053422        28.6651 
 171   0.0000       1.071487        29.1566 
 172   0.0000       1.077910        29.3314 
 173   0.0000       1.091329        29.6966 
 174   0.0000       1.110880        30.2286 
 175   0.0000       1.124802        30.6074 
 176   0.0000       1.137997        30.9665 
 177   0.0000       1.143228        31.1088 
 178   0.0000       1.150789        31.3146 
 179   0.0000       1.159993        31.5650 
 180   0.0000       1.162569        31.6351 
 181   0.0000       1.165946        31.7270 
 182   0.0000       1.185804        32.2674 
 183   0.0000       1.196243        32.5514 
 184   0.0000       1.206511        32.8308 
 185   0.0000       1.213124        33.0108 
 186   0.0000       1.236925        33.6584 
 187   0.0000       1.238487        33.7010 
 188   0.0000       1.256891        34.2017 
 189   0.0000       1.271195        34.5910 
 190   0.0000       1.284018        34.9399 
 191   0.0000       1.286928        35.0191 
 192   0.0000       1.302765        35.4500 
 193   0.0000       1.309574        35.6353 
 194   0.0000       1.315854        35.8062 
 195   0.0000       1.321290        35.9541 
 196   0.0000       1.355590        36.8875 
 197   0.0000       1.368298        37.2333 
 198   0.0000       1.369843        37.2753 
 199   0.0000       1.375802        37.4375 
 200   0.0000       1.393941        37.9310 
 201   0.0000       1.403110        38.1806 
 202   0.0000       1.412015        38.4229 
 203   0.0000       1.425662        38.7942 
 204   0.0000       1.429723        38.9047 
 205   0.0000       1.436852        39.0987 
 206   0.0000       1.443678        39.2845 
 207   0.0000       1.447049        39.3762 
 208   0.0000       1.466180        39.8968 
 209   0.0000       1.480303        40.2811 
 210   0.0000       1.505315        40.9617 
 211   0.0000       1.510414        41.1004 
 212   0.0000       1.524966        41.4964 
 213   0.0000       1.529900        41.6307 
 214   0.0000       1.554097        42.2891 
 215   0.0000       1.560560        42.4650 
 216   0.0000       1.572068        42.7781 
 217   0.0000       1.595506        43.4159 
 218   0.0000       1.597340        43.4658 
 219   0.0000       1.608267        43.7632 
 220   0.0000       1.638142        44.5761 
 221   0.0000       1.644843        44.7585 
 222   0.0000       1.662561        45.2406 
 223   0.0000       1.667712        45.3808 
 224   0.0000       1.695617        46.1401 
 225   0.0000       1.700655        46.2772 
 226   0.0000       1.718714        46.7686 
 227   0.0000       1.742923        47.4273 
 228   0.0000       1.751491        47.6605 
 229   0.0000       1.761536        47.9338 
 230   0.0000       1.771791        48.2129 
 231   0.0000       1.794505        48.8310 
 232   0.0000       1.823549        49.6213 
 233   0.0000       1.831953        49.8500 
 234   0.0000       1.851873        50.3920 
 235   0.0000       1.873059        50.9685 
 236   0.0000       1.896224        51.5989 
 237   0.0000       1.905028        51.8385 
 238   0.0000       1.918474        52.2043 
 239   0.0000       1.931217        52.5511 
 240   0.0000       1.966372        53.5077 
 241   0.0000       1.978232        53.8304 
 242   0.0000       1.982540        53.9476 
 243   0.0000       1.994902        54.2840 
 244   0.0000       2.019143        54.9437 
 245   0.0000       2.051229        55.8168 
 246   0.0000       2.057964        56.0001 
 247   0.0000       2.082686        56.6728 
 248   0.0000       2.101566        57.1865 
 249   0.0000       2.111324        57.4520 
 250   0.0000       2.121522        57.7296 
 251   0.0000       2.146022        58.3962 
 252   0.0000       2.175710        59.2041 
 253   0.0000       2.178414        59.2777 
 254   0.0000       2.213573        60.2344 
 255   0.0000       2.229416        60.6655 
 256   0.0000       2.233684        60.7816 
 257   0.0000       2.242517        61.0220 
 258   0.0000       2.249005        61.1985 
 259   0.0000       2.284884        62.1749 
 260   0.0000       2.312067        62.9145 
 261   0.0000       2.320106        63.1333 
 262   0.0000       2.339809        63.6694 
 263   0.0000       2.371110        64.5212 
 264   0.0000       2.393230        65.1231 
 265   0.0000       2.407615        65.5145 
 266   0.0000       2.422450        65.9182 
 267   0.0000       2.458402        66.8965 
 268   0.0000       2.475383        67.3586 
 269   0.0000       2.486464        67.6601 
 270   0.0000       2.503123        68.1135 
 271   0.0000       2.519249        68.5523 
 272   0.0000       2.527995        68.7902 
 273   0.0000       2.535658        68.9988 
 274   0.0000       2.554519        69.5120 
 275   0.0000       2.556557        69.5675 
 276   0.0000       2.578536        70.1655 
 277   0.0000       2.582002        70.2598 
 278   0.0000       2.587974        70.4223 
 279   0.0000       2.606518        70.9270 
 280   0.0000       2.621164        71.3255 
 281   0.0000       2.636190        71.7344 
 282   0.0000       2.651612        72.1540 
 283   0.0000       2.661562        72.4248 
 284   0.0000       2.681046        72.9550 
 285   0.0000       2.693546        73.2951 
 286   0.0000       2.708255        73.6954 
 287   0.0000       2.717337        73.9425 
 288   0.0000       2.730334        74.2962 
 289   0.0000       2.751469        74.8713 
 290   0.0000       2.774714        75.5038 
 291   0.0000       2.787055        75.8396 
 292   0.0000       2.790454        75.9321 
 293   0.0000       2.810414        76.4753 
 294   0.0000       2.820446        76.7482 
 295   0.0000       2.841227        77.3137 
 296   0.0000       2.844188        77.3943 
 297   0.0000       2.861983        77.8785 
 298   0.0000       2.878125        78.3178 
 299   0.0000       2.892271        78.7027 
 300   0.0000       2.900291        78.9209 
 301   0.0000       2.916848        79.3715 
 302   0.0000       2.929720        79.7217 
 303   0.0000       2.932688        79.8025 
 304   0.0000       2.944826        80.1328 
 305   0.0000       2.948858        80.2425 
 306   0.0000       2.963575        80.6430 
 307   0.0000       2.975982        80.9806 
 308   0.0000       2.987556        81.2955 
 309   0.0000       3.001466        81.6740 
 310   0.0000       3.003484        81.7290 
 311   0.0000       3.012180        81.9656 
 312   0.0000       3.028955        82.4220 
 313   0.0000       3.036082        82.6160 
 314   0.0000       3.040967        82.7489 
 315   0.0000       3.055129        83.1343 
 316   0.0000       3.063177        83.3533 
 317   0.0000       3.066491        83.4435 
 318   0.0000       3.082094        83.8680 
 319   0.0000       3.091728        84.1302 
 320   0.0000       3.095121        84.2225 
 321   0.0000       3.106470        84.5313 
 322   0.0000       3.117753        84.8384 
 323   0.0000       3.126836        85.0855 
 324   0.0000       3.135582        85.3235 
 325   0.0000       3.144477        85.5656 
 326   0.0000       3.158760        85.9542 
 327   0.0000       3.161629        86.0323 
 328   0.0000       3.171809        86.3093 
 329   0.0000       3.184778        86.6622 
 330   0.0000       3.204823        87.2077 
 331   0.0000       3.209491        87.3347 
 332   0.0000       3.216801        87.5336 
 333   0.0000       3.231086        87.9223 
 334   0.0000       3.240193        88.1701 
 335   0.0000       3.242806        88.2412 
 336   0.0000       3.258164        88.6591 
 337   0.0000       3.269143        88.9579 
 338   0.0000       3.282508        89.3216 
 339   0.0000       3.293957        89.6331 
 340   0.0000       3.317730        90.2800 
 341   0.0000       3.324548        90.4655 
 342   0.0000       3.329113        90.5898 
 343   0.0000       3.336552        90.7922 
 344   0.0000       3.349282        91.1386 
 345   0.0000       3.350613        91.1748 
 346   0.0000       3.363377        91.5221 
 347   0.0000       3.380178        91.9793 
 348   0.0000       3.395207        92.3883 
 349   0.0000       3.402380        92.5835 
 350   0.0000       3.406957        92.7080 
 351   0.0000       3.417960        93.0074 
 352   0.0000       3.435247        93.4778 
 353   0.0000       3.438574        93.5684 
 354   0.0000       3.444036        93.7170 
 355   0.0000       3.455944        94.0410 
 356   0.0000       3.460836        94.1741 
 357   0.0000       3.465457        94.2999 
 358   0.0000       3.473276        94.5126 
 359   0.0000       3.508119        95.4608 
 360   0.0000       3.524093        95.8954 
 361   0.0000       3.528758        96.0224 
 362   0.0000       3.542315        96.3913 
 363   0.0000       3.552200        96.6603 
 364   0.0000       3.562963        96.9531 
 365   0.0000       3.567578        97.0787 
 366   0.0000       3.570824        97.1671 
 367   0.0000       3.578984        97.3891 
 368   0.0000       3.603322        98.0514 
 369   0.0000       3.608376        98.1889 
 370   0.0000       3.625431        98.6530 
 371   0.0000       3.632872        98.8555 
 372   0.0000       3.646251        99.2195 
 373   0.0000       3.658348        99.5487 
 374   0.0000       3.673615        99.9642 
 375   0.0000       3.684048       100.2480 
 376   0.0000       3.689793       100.4044 
 377   0.0000       3.707211       100.8783 
 378   0.0000       3.716215       101.1234 
 379   0.0000       3.727467       101.4295 
 380   0.0000       3.748512       102.0022 
 381   0.0000       3.764160       102.4280 
 382   0.0000       3.771992       102.6411 
 383   0.0000       3.778434       102.8164 
 384   0.0000       3.800931       103.4286 
 385   0.0000       3.803703       103.5040 
 386   0.0000       3.806321       103.5753 
 387   0.0000       3.840380       104.5021 
 388   0.0000       3.850122       104.7671 
 389   0.0000       3.853838       104.8683 
 390   0.0000       3.871434       105.3471 
 391   0.0000       3.884451       105.7013 
 392   0.0000       3.892664       105.9248 
 393   0.0000       3.906412       106.2989 
 394   0.0000       3.923397       106.7611 
 395   0.0000       3.943896       107.3189 
 396   0.0000       3.955815       107.6432 
 397   0.0000       3.972625       108.1006 
 398   0.0000       3.983218       108.3889 
 399   0.0000       3.996478       108.7497 
 400   0.0000       4.013385       109.2097 
 401   0.0000       4.018743       109.3555 
 402   0.0000       4.036719       109.8447 
 403   0.0000       4.045095       110.0726 
 404   0.0000       4.065093       110.6168 
 405   0.0000       4.072847       110.8278 
 406   0.0000       4.097237       111.4915 
 407   0.0000       4.112288       111.9010 
 408   0.0000       4.118448       112.0687 
 409   0.0000       4.126304       112.2824 
 410   0.0000       4.144224       112.7701 
 411   0.0000       4.156274       113.0980 
 412   0.0000       4.165452       113.3477 
 413   0.0000       4.173320       113.5618 
 414   0.0000       4.187590       113.9501 
 415   0.0000       4.199540       114.2753 
 416   0.0000       4.202633       114.3595 
 417   0.0000       4.211381       114.5975 
 418   0.0000       4.232966       115.1848 
 419   0.0000       4.250384       115.6588 
 420   0.0000       4.256954       115.8376 
 421   0.0000       4.268361       116.1480 
 422   0.0000       4.277515       116.3971 
 423   0.0000       4.303204       117.0961 
 424   0.0000       4.315498       117.4307 
 425   0.0000       4.337318       118.0244 
 426   0.0000       4.338939       118.0685 
 427   0.0000       4.353472       118.4640 
 428   0.0000       4.370413       118.9250 
 429   0.0000       4.390856       119.4813 
 430   0.0000       4.423768       120.3769 
 431   0.0000       4.433819       120.6503 
 432   0.0000       4.462843       121.4401 
 433   0.0000       4.470685       121.6535 
 434   0.0000       4.487303       122.1057 
 435   0.0000       4.500935       122.4767 
 436   0.0000       4.525307       123.1399 
 437   0.0000       4.538319       123.4939 
 438   0.0000       4.561609       124.1277 
 439   0.0000       4.584477       124.7500 
 440   0.0000       4.599595       125.1614 
 441   0.0000       4.615475       125.5935 
 442   0.0000       4.628125       125.9377 
 443   0.0000       4.654910       126.6665 
 444   0.0000       4.671430       127.1161 
 445   0.0000       4.689584       127.6101 
 446   0.0000       4.709996       128.1655 
 447   0.0000       4.723794       128.5410 
 448   0.0000       4.733096       128.7941 
 449   0.0000       4.747232       129.1788 
 450   0.0000       4.754164       129.3674 
 451   0.0000       4.780388       130.0810 
 452   0.0000       4.787581       130.2767 
 453   0.0000       4.807465       130.8178 
 454   0.0000       4.824975       131.2943 
 455   0.0000       4.853358       132.0666 
 456   0.0000       4.862988       132.3286 
 457   0.0000       4.885119       132.9308 
 458   0.0000       4.901479       133.3760 
 459   0.0000       4.938089       134.3722 
 460   0.0000       4.955958       134.8585 
 461   0.0000       4.960118       134.9717 
 462   0.0000       4.973851       135.3454 
 463   0.0000       4.995241       135.9274 
 464   0.0000       5.023911       136.7076 
 465   0.0000       5.032468       136.9404 
 466   0.0000       5.058620       137.6520 
 467   0.0000       5.070450       137.9740 
 468   0.0000       5.091293       138.5411 
 469   0.0000       5.108060       138.9974 
 470   0.0000       5.117743       139.2609 
 471   0.0000       5.143885       139.9722 
 472   0.0000       5.158868       140.3799 
 473   0.0000       5.161027       140.4387 
 474   0.0000       5.173418       140.7759 
 475   0.0000       5.185261       141.0981 
 476   0.0000       5.193024       141.3094 
 477   0.0000       5.209335       141.7532 
 478   0.0000       5.218267       141.9963 
 479   0.0000       5.232551       142.3850 
 480   0.0000       5.249347       142.8420 
 481   0.0000       5.253980       142.9681 
 482   0.0000       5.265326       143.2768 
 483   0.0000       5.281039       143.7044 
 484   0.0000       5.308106       144.4409 
 485   0.0000       5.337811       145.2492 
 486   0.0000       5.347607       145.5158 
 487   0.0000       5.350878       145.6048 
 488   0.0000       5.360074       145.8550 
 489   0.0000       5.395875       146.8292 
 490   0.0000       5.415590       147.3657 
 491   0.0000       5.455217       148.4440 
 492   0.0000       5.472904       148.9253 
 493   0.0000       5.477982       149.0635 
 494   0.0000       5.505566       149.8141 
 495   0.0000       5.515304       150.0791 
 496   0.0000       5.532671       150.5516 
 497   0.0000       5.554081       151.1342 
 498   0.0000       5.574805       151.6982 
 499   0.0000       5.581426       151.8783 
 500   0.0000       5.592256       152.1730 
 501   0.0000       5.597006       152.3023 
 502   0.0000       5.613298       152.7456 
 503   0.0000       5.627297       153.1265 
 504   0.0000       5.650333       153.7534 
 505   0.0000       5.670677       154.3070 
 506   0.0000       5.692638       154.9046 
 507   0.0000       5.703072       155.1885 
 508   0.0000       5.734570       156.0456 
 509   0.0000       5.791124       157.5845 
 510   0.0000       5.811390       158.1360 
 511   0.0000       5.833331       158.7330 
 512   0.0000       5.858641       159.4217 
 513   0.0000       5.878702       159.9676 
 514   0.0000       5.923066       161.1748 
 515   0.0000       5.951834       161.9576 
 516   0.0000       5.960464       162.1925 
 517   0.0000       5.993293       163.0858 
 518   0.0000       6.016634       163.7209 
 519   0.0000       6.080205       165.4508 
 520   0.0000       6.103799       166.0928 
 521   0.0000       6.113953       166.3691 
 522   0.0000       6.121266       166.5681 
 523   0.0000       6.175781       168.0515 
 524   0.0000       6.238818       169.7669 
 525   0.0000       6.298651       171.3950 
 526   0.0000       6.327442       172.1784 
 527   0.0000       6.333460       172.3422 
 528   0.0000       6.385158       173.7490 
 529   0.0000       6.414423       174.5453 
 530   0.0000       6.418642       174.6601 
 531   0.0000       6.456278       175.6843 
 532   0.0000       6.474997       176.1936 
 533   0.0000       6.480372       176.3399 
 534   0.0000       6.498074       176.8216 
 535   0.0000       6.562387       178.5716 
 536   0.0000       6.596465       179.4989 
 537   0.0000       6.599162       179.5723 
 538   0.0000       6.632852       180.4891 
 539   0.0000       6.696461       182.2200 
 540   0.0000       6.702532       182.3852 
 541   0.0000       6.720928       182.8858 
 542   0.0000       6.743551       183.5013 
 543   0.0000       6.750816       183.6990 
 544   0.0000       6.771031       184.2491 
 545   0.0000       6.851960       186.4513 
 546   0.0000       6.862589       186.7405 
 547   0.0000       6.881100       187.2443 
 548   0.0000       6.902384       187.8234 
 549   0.0000       7.039118       191.5441 
 550   0.0000       7.056934       192.0289 
 551   0.0000       7.075516       192.5346 
 552   0.0000       7.103580       193.2982 
 553   0.0000       7.149162       194.5386 
 554   0.0000       7.170419       195.1170 
 555   0.0000       7.224614       196.5918 
 556   0.0000       7.389791       201.0864 
 557   0.0000       7.534317       205.0192 
 558   0.0000      23.112921       628.9346 
 559   0.0000      23.205959       631.4663 
 560   0.0000      23.217579       631.7824 
 561   0.0000      23.271793       633.2577 
 562   0.0000      23.351168       635.4176 
 563   0.0000      23.384666       636.3291 
 564   0.0000      32.710516       890.0984 
 565   0.0000      32.798556       892.4941 
 566   0.0000      32.841982       893.6758 
 567   0.0000      43.878797      1194.0028 
 568   0.0000      43.927744      1195.3347 
 569   0.0000      43.970570      1196.5000 
 570   0.0000      44.042083      1198.4460 

                    ********************************
                    * MULLIKEN POPULATION ANALYSIS *
                    ********************************

-----------------------
MULLIKEN ATOMIC CHARGES
-----------------------
   0 N :   -0.186975
   1 H :    0.178955
   2 C :   -0.117159
   3 C :    0.341443
   4 H :    0.158659
   5 H :    0.146716
   6 O :   -0.384247
   7 C :    0.262452
   8 C :   -0.079536
   9 O :   -0.353562
  10 N :   -0.231184
  11 H :    0.156588
  12 H :    0.157266
  13 H :    0.202162
  14 C :    0.227666
  15 C :   -0.145850
  16 O :   -0.343410
  17 H :    0.176302
  18 H :    0.159266
  19 O :   -0.218688
  20 H :    0.271560
  21 N :   -0.086468
  22 H :    0.231470
  23 H :    0.237581
  24 H :    0.238993
Sum of atomic charges:    1.0000000

--------------------------------
MULLIKEN REDUCED ORBITAL CHARGES
--------------------------------
  0 N s       :     3.406758  s :     3.406758
      pz      :     1.136866  p :     3.721294
      px      :     1.456149
      py      :     1.128280
      dz2     :     0.014422  d :     0.055404
      dxz     :     0.011620
      dyz     :     0.014416
      dx2y2   :     0.009414
      dxy     :     0.005532
      f0      :     0.000515  f :     0.003518
      f+1     :     0.000637
      f-1     :     0.000585
      f+2     :     0.000540
      f-2     :     0.000637
      f+3     :     0.000336
      f-3     :     0.000267
  1 H s       :     0.753521  s :     0.753521
      pz      :     0.016318  p :     0.062248
      px      :     0.022594
      py      :     0.023335
      dz2     :     0.000543  d :     0.005277
      dxz     :     0.000224
      dyz     :     0.001467
      dx2y2   :     0.001456
      dxy     :     0.001586
  2 C s       :     3.202084  s :     3.202084
      pz      :     0.849272  p :     2.797575
      px      :     0.808364
      py      :     1.139939
      dz2     :     0.024685  d :     0.109989
      dxz     :     0.020553
      dyz     :     0.025724
      dx2y2   :     0.028069
      dxy     :     0.010958
      f0      :     0.001498  f :     0.007511
      f+1     :     0.001268
      f-1     :     0.000612
      f+2     :     0.001637
      f-2     :     0.000985
      f+3     :     0.000785
      f-3     :     0.000726
  3 C s       :     3.111468  s :     3.111468
      pz      :     0.723730  p :     2.256794
      px      :     0.822479
      py      :     0.710585
      dz2     :     0.022399  d :     0.265636
      dxz     :     0.025301
      dyz     :     0.075710
      dx2y2   :     0.072255
      dxy     :     0.069971
      f0      :     0.002054  f :     0.024659
      f+1     :     0.001730
      f-1     :     0.003014
      f+2     :     0.002879
      f-2     :     0.003676
      f+3     :     0.003907
      f-3     :     0.007400
  4 H s       :     0.803654  s :     0.803654
      pz      :     0.009580  p :     0.035576
      px      :     0.008087
      py      :     0.017909
      dz2     :     0.000325  d :     0.002111
      dxz     :     0.000188
      dyz     :     0.000597
      dx2y2   :     0.000323
      dxy     :     0.000678
  5 H s       :     0.817555  s :     0.817555
      pz      :     0.012722  p :     0.033640
      px      :     0.008536
      py      :     0.012382
      dz2     :     0.000680  d :     0.002089
      dxz     :     0.000448
      dyz     :     0.000266
      dx2y2   :     0.000372
      dxy     :     0.000323
  6 O s       :     3.806326  s :     3.806326
      pz      :     1.523862  p :     4.547486
      px      :     1.632080
      py      :     1.391544
      dz2     :     0.002990  d :     0.028656
      dxz     :     0.001650
      dyz     :     0.007957
      dx2y2   :     0.008095
      dxy     :     0.007965
      f0      :     0.000171  f :     0.001778
      f+1     :     0.000055
      f-1     :     0.000190
      f+2     :     0.000224
      f-2     :     0.000178
      f+3     :     0.000449
      f-3     :     0.000511
[...]
     53      -0.000672  -0.543039   0.003877   0.001335   0.003152   0.004918
     54      -0.000161   0.377006  -0.002528  -0.001278  -0.016663   0.003012
     55      -0.000254   0.559565  -0.003650  -0.001985  -0.012438   0.002288
     56       0.000219  -0.428519   0.002775   0.001378   0.009474  -0.001490
     57       0.000063   0.000019   0.000027  -0.000333   0.000214   0.000097
     58      -0.000281   0.000032  -0.000017  -0.000633   0.000146  -0.000040
     59       0.000152  -0.000016  -0.000025  -0.000059  -0.000073   0.000012
     60      -0.002482  -0.000085  -0.000165  -0.003719  -0.001238  -0.001004
     61      -0.000578   0.000147   0.000402  -0.001395   0.001860   0.001696
     62       0.001941  -0.000009   0.000252   0.002431   0.000378  -0.000151
     63       0.000006   0.001016  -0.000017  -0.000016   0.035662   0.042030
     64      -0.000035   0.001324  -0.000051   0.000095   0.044033  -0.064045
     65      -0.000174  -0.000509  -0.000052   0.000338  -0.030533  -0.001797
     66       0.000100  -0.003834   0.000223  -0.000455  -0.164428  -0.655753
     67      -0.000083   0.004401  -0.000061   0.000495   0.176134   0.710210
     68       0.000066  -0.000115   0.000013   0.000077   0.019847   0.089774
     69       0.000157  -0.001454   0.000472  -0.000354  -0.351109   0.090239
     70       0.000162  -0.016844   0.000488  -0.000693  -0.810528   0.181650
     71      -0.000040   0.012870  -0.000260   0.000416   0.395507  -0.096644
     72      -0.000272  -0.005775  -0.000138   0.001269   0.007618  -0.000732
     73       0.000507  -0.002594   0.000168  -0.001125   0.008777  -0.004411
     74       0.002658  -0.010462   0.001141  -0.005320   0.005342   0.033055
                 72         73         74    
      0      -0.002047  -0.018288  -0.000013
      1      -0.007840  -0.068673  -0.000615
      2      -0.001634  -0.013881   0.000373
      3       0.025714   0.232254   0.000755
      4       0.107155   0.941810   0.002686
      5       0.024094   0.202202   0.001010
      6       0.000128   0.001122  -0.000239
      7      -0.000104  -0.000813   0.000476
      8       0.000136   0.000911  -0.000157
      9      -0.000028  -0.000020   0.001472
     10       0.000020   0.000007  -0.002826
     11       0.000062   0.000125  -0.000487
     12       0.000085   0.001433   0.000853
     13       0.000915   0.008508   0.002447
     14       0.000495   0.005047  -0.000817
     15      -0.000063  -0.000564   0.002233
     16       0.000552   0.004532  -0.000442
     17      -0.000623  -0.005254  -0.000389
     18       0.000011   0.000050  -0.000290
     19      -0.000017  -0.000072   0.001795
     20      -0.000039  -0.000009   0.000317
     21       0.000081   0.000175   0.000311
     22      -0.000309  -0.000481   0.001467
     23      -0.000342  -0.001403  -0.000464
     24       0.001183  -0.000229   0.000006
     25      -0.001071  -0.000017  -0.000045
     26      -0.000494   0.000306   0.000022
     27       0.000036   0.000299  -0.000428
     28       0.000148   0.001038  -0.000807
     29      -0.000012  -0.000063  -0.000109
     30       0.037191  -0.004226   0.000213
     31       0.063371  -0.007123   0.000071
     32       0.005528  -0.000899  -0.000013
     33       0.000402   0.000441   0.000053
     34      -0.005841   0.000594  -0.000072
     35       0.003063  -0.000293   0.000493
     36      -0.009061   0.001505  -0.000209
     37      -0.000881   0.000198  -0.000193
     38       0.000351  -0.000040  -0.000144
     39      -0.494915   0.056537  -0.000913
     40      -0.855374   0.097198  -0.001938
     41      -0.070698   0.006198  -0.000351
     42      -0.001432   0.000194  -0.000271
     43       0.001070  -0.000030  -0.000078
     44      -0.000195   0.000025  -0.000056
     45       0.000326  -0.000011  -0.000023
     46       0.000083   0.000029  -0.000014
     47       0.000015  -0.000007  -0.000044
     48      -0.000831   0.000062   0.000101
     49      -0.000868   0.000021   0.000049
     50      -0.000056  -0.000011   0.000067
     51      -0.000423  -0.000004   0.000008
     52      -0.000229  -0.000053   0.000010
     53      -0.000081   0.000115   0.000141
     54      -0.001677   0.000417  -0.000012
     55      -0.002023  -0.000036  -0.000200
     56       0.000640  -0.000075  -0.000081
     57      -0.000078  -0.000073   0.030417
     58       0.000142   0.000178  -0.054484
     59      -0.000032  -0.000043   0.000021
     60       0.001306   0.001264  -0.495055
     61      -0.002167  -0.002678   0.866523
     62       0.000158  -0.000230   0.006084
     63       0.000011   0.000037  -0.000209
     64       0.000335  -0.000155   0.000126
     65      -0.000156  -0.000070   0.000533
     66       0.001539  -0.000648   0.001383
     67      -0.001671   0.000783  -0.001418
     68      -0.000214   0.000050  -0.000021
     69      -0.000761   0.000156   0.000449
     70      -0.003733   0.001002   0.001188
     71       0.001719  -0.000422  -0.000919
     72      -0.000057  -0.000481   0.002630
     73       0.000106   0.000596  -0.002300
     74       0.001113   0.001570  -0.007970


-----------
IR SPECTRUM
-----------

 Mode   freq       eps      Int      T**2         TX        TY        TZ
       cm**-1   L/(mol*cm) km/mol    a.u.
----------------------------------------------------------------------------
  6:     46.14   0.003099   15.66  0.020960  (-0.144244  0.000453 -0.012374)
  7:     65.84   0.003148   15.91  0.014919  ( 0.048419  0.073651  0.084561)
  8:     83.66   0.001675    8.47  0.006249  (-0.043426 -0.007973  0.065572)
  9:    109.41   0.001579    7.98  0.004505  (-0.054574  0.037295  0.011658)
 10:    123.67   0.002243   11.33  0.005659  (-0.042798 -0.009728 -0.061096)
 11:    130.63   0.000181    0.92  0.000433  ( 0.001945 -0.019166  0.007872)
 12:    194.58   0.005264   26.60  0.008443  ( 0.013063 -0.019258 -0.088890)
 13:    227.74   0.002625   13.27  0.003597  (-0.029536 -0.051370 -0.009255)
 14:    245.62   0.006609   33.40  0.008397  ( 0.003731 -0.002147  0.091535)
 15:    296.80   0.003040   15.36  0.003196  ( 0.038810 -0.021244  0.035192)
 16:    317.31   0.008707   44.00  0.008563  ( 0.052936 -0.035577 -0.067045)
 17:    329.43   0.002191   11.07  0.002076  (-0.017300 -0.004093 -0.041951)
 18:    386.56   0.006647   33.59  0.005366  ( 0.031644 -0.028175  0.059754)
 19:    416.83   0.006528   32.99  0.004888  (-0.054188  0.044015 -0.003736)
 20:    437.74   0.021848  110.41  0.015575  (-0.036748  0.024345  0.116758)
 21:    452.77   0.003411   17.24  0.002351  (-0.041799  0.018040  0.016675)
 22:    479.47   0.000255    1.29  0.000166  ( 0.008578  0.006151 -0.007402)
 23:    526.72   0.018930   95.66  0.011215  ( 0.100573  0.033035 -0.002994)
 24:    571.76   0.022181  112.09  0.012106  ( 0.007376  0.049913  0.097777)
 25:    625.94   0.006747   34.10  0.003364  ( 0.013276  0.007375  0.055973)
 26:    633.40   0.006434   32.52  0.003170  (-0.053467 -0.015174  0.009002)
 27:    639.55   0.000856    4.33  0.000418  ( 0.007160 -0.011297  0.015460)
 28:    699.81   0.000235    1.19  0.000105  (-0.004660  0.000142 -0.009103)
 29:    742.31   0.001759    8.89  0.000739  (-0.006408 -0.001875  0.026358)
 30:    795.99   0.001509    7.63  0.000592  ( 0.010399 -0.016384  0.014664)
 31:    868.11   0.001135    5.74  0.000408  (-0.009392  0.013901 -0.011257)
 32:    883.68   0.001015    5.13  0.000358  (-0.014887  0.011108  0.003671)
 33:    927.42   0.002792   14.11  0.000940  (-0.023727 -0.013292  0.014140)
 34:    938.94   0.005614   28.37  0.001866  (-0.000134 -0.010861 -0.041807)
 35:   1009.43   0.000984    4.97  0.000304  (-0.016071  0.006018 -0.003118)
 36:   1034.37   0.002635   13.32  0.000795  (-0.012878  0.021563  0.012814)
 37:   1051.16   0.000478    2.42  0.000142  ( 0.008649 -0.002640 -0.007752)
 38:   1076.85   0.002469   12.48  0.000716  ( 0.004716 -0.026191 -0.002721)
 39:   1121.23   0.001974    9.97  0.000549  ( 0.018324 -0.005247  0.013640)
 40:   1134.55   0.001057    5.34  0.000291  ( 0.009368  0.008916 -0.011108)
 41:   1147.94   0.005603   28.32  0.001523  (-0.005192  0.030829  0.023362)
 42:   1228.67   0.001769    8.94  0.000449  (-0.000990  0.015823 -0.014069)
 43:   1257.14   0.006710   33.91  0.001666  ( 0.015266  0.010793  0.036277)
 44:   1270.07   0.008095   40.91  0.001989  ( 0.022755 -0.032164 -0.020899)
 45:   1289.89   0.019003   96.03  0.004597  ( 0.038339  0.055074 -0.009716)
 46:   1319.96   0.011184   56.52  0.002644  ( 0.028363 -0.024528  0.035185)
 47:   1342.29   0.001711    8.65  0.000398  ( 0.000841 -0.004245  0.019471)
 48:   1363.64   0.010096   51.02  0.002310  (-0.016208 -0.040974  0.019204)
 49:   1366.14   0.004684   23.67  0.001070  (-0.030940 -0.010535 -0.001319)
 50:   1419.03   0.002008   10.15  0.000442  (-0.009298 -0.018846 -0.000067)
 51:   1435.19   0.027140  137.15  0.005901  ( 0.052620  0.055652  0.005926)
 52:   1479.27   0.004151   20.98  0.000876  (-0.006466 -0.015585  0.024312)
 53:   1487.95   0.002206   11.15  0.000463  (-0.008224  0.016869  0.010514)
 54:   1493.00   0.003241   16.38  0.000677  ( 0.009754  0.024035  0.002149)
 55:   1539.88   0.049499  250.15  0.010031  (-0.099769 -0.003483  0.008084)
 56:   1548.03   0.033597  169.79  0.006773  ( 0.002262 -0.038775  0.072555)
 57:   1573.01   0.031130  157.32  0.006176  ( 0.072315 -0.030246  0.005606)
 58:   1618.96   0.009710   49.07  0.001872  (-0.021956  0.037264 -0.000929)
 59:   1693.17   0.023339  117.95  0.004302  (-0.037322  0.048972  0.022594)
 60:   1785.16   0.013985   70.67  0.002445  (-0.040058 -0.026765 -0.011124)
 61:   1790.40   0.052265  264.13  0.009110  ( 0.053931 -0.073690 -0.027765)
 62:   1822.41   0.073130  369.57  0.012523  (-0.030563 -0.107643 -0.001229)
 63:   2951.54   0.179148  905.34  0.018941  ( 0.038619 -0.054878 -0.120159)
 64:   3120.17   0.000838    4.23  0.000084  (-0.006884  0.003243  0.005088)
 65:   3124.08   0.000396    2.00  0.000040  ( 0.005512 -0.001764 -0.002457)
 66:   3131.39   0.000711    3.59  0.000071  ( 0.003850  0.000157  0.007485)
 67:   3184.98   0.000131    0.66  0.000013  (-0.000433 -0.001548 -0.003195)
 68:   3188.10   0.000056    0.28  0.000006  ( 0.002261  0.000378  0.000506)
 69:   3193.74   0.000037    0.19  0.000004  (-0.000253 -0.000270  0.001859)
 70:   3415.18   0.014085   71.18  0.001287  (-0.014464 -0.026448  0.019451)
 71:   3560.09   0.024890  125.79  0.002182  (-0.028975  0.036453  0.003665)
 72:   3676.60   0.012057   60.93  0.001023  (-0.023909 -0.020555 -0.005403)
 73:   3679.23   0.007471   37.76  0.000634  ( 0.009351  0.023372  0.000146)
 74:   3773.81   0.026608  134.47  0.002200  (-0.013359  0.044728 -0.004605)

* The epsilon (eps) is given for a Dirac delta lineshape.
** The dipole moment derivative (T) already includes vibrational overlap.

The first frequency considered to be a vibration is 6
The total number of vibrations considered is 69


--------------------------
THERMOCHEMISTRY AT 298.15K
--------------------------

Temperature         ... 298.15 K
Pressure            ... 1.00 atm
Total Mass          ... 190.18 AMU

Throughout the following assumptions are being made:
  (1) The electronic state is orbitally nondegenerate
  (2) There are no thermally accessible electronically excited states
  (3) Hindered rotations indicated by low frequency modes are not
      treated as such but are treated as vibrations and this may
      cause some error
  (4) All equations used are the standard statistical mechanics
      equations for an ideal gas
  (5) All vibrations are strictly harmonic

freq.      46.14  E(vib)   ...       0.53 
freq.      65.84  E(vib)   ...       0.50 
freq.      83.66  E(vib)   ...       0.48 
freq.     109.41  E(vib)   ...       0.45 
freq.     123.67  E(vib)   ...       0.43 
freq.     130.63  E(vib)   ...       0.43 
freq.     194.58  E(vib)   ...       0.36 
freq.     227.74  E(vib)   ...       0.33 
freq.     245.62  E(vib)   ...       0.31 
freq.     296.80  E(vib)   ...       0.27 
freq.     317.31  E(vib)   ...       0.25 
freq.     329.43  E(vib)   ...       0.24 
freq.     386.56  E(vib)   ...       0.20 
freq.     416.83  E(vib)   ...       0.18 
freq.     437.74  E(vib)   ...       0.17 
freq.     452.77  E(vib)   ...       0.16 
freq.     479.47  E(vib)   ...       0.15 
freq.     526.72  E(vib)   ...       0.13 
freq.     571.76  E(vib)   ...       0.11 
freq.     625.94  E(vib)   ...       0.09 
freq.     633.40  E(vib)   ...       0.09 
freq.     639.55  E(vib)   ...       0.09 
freq.     699.81  E(vib)   ...       0.07 
freq.     742.31  E(vib)   ...       0.06 
freq.     795.99  E(vib)   ...       0.05 
freq.     868.11  E(vib)   ...       0.04 
freq.     883.68  E(vib)   ...       0.04 
freq.     927.42  E(vib)   ...       0.03 
freq.     938.94  E(vib)   ...       0.03 
freq.    1009.43  E(vib)   ...       0.02 
freq.    1034.37  E(vib)   ...       0.02 
freq.    1051.16  E(vib)   ...       0.02 
freq.    1076.85  E(vib)   ...       0.02 
freq.    1121.23  E(vib)   ...       0.01 
freq.    1134.55  E(vib)   ...       0.01 
freq.    1147.94  E(vib)   ...       0.01 
freq.    1228.67  E(vib)   ...       0.01 
freq.    1257.14  E(vib)   ...       0.01 
freq.    1270.07  E(vib)   ...       0.01 
freq.    1289.89  E(vib)   ...       0.01 
freq.    1319.96  E(vib)   ...       0.01 
freq.    1342.29  E(vib)   ...       0.01 
freq.    1363.64  E(vib)   ...       0.01 
freq.    1366.14  E(vib)   ...       0.01 
freq.    1419.03  E(vib)   ...       0.00 
freq.    1435.19  E(vib)   ...       0.00 
freq.    1479.27  E(vib)   ...       0.00 
freq.    1487.95  E(vib)   ...       0.00 
freq.    1493.00  E(vib)   ...       0.00 
freq.    1539.88  E(vib)   ...       0.00 
freq.    1548.03  E(vib)   ...       0.00 
freq.    1573.01  E(vib)   ...       0.00 
freq.    1618.96  E(vib)   ...       0.00 
freq.    1693.17  E(vib)   ...       0.00 
freq.    1785.16  E(vib)   ...       0.00 
freq.    1790.40  E(vib)   ...       0.00 
freq.    1822.41  E(vib)   ...       0.00 
freq.    2951.54  E(vib)   ...       0.00 
freq.    3120.17  E(vib)   ...       0.00 
freq.    3124.08  E(vib)   ...       0.00 
freq.    3131.39  E(vib)   ...       0.00 
freq.    3184.98  E(vib)   ...       0.00 
freq.    3188.10  E(vib)   ...       0.00 
freq.    3193.74  E(vib)   ...       0.00 
freq.    3415.18  E(vib)   ...       0.00 
freq.    3560.09  E(vib)   ...       0.00 
freq.    3676.60  E(vib)   ...       0.00 
freq.    3679.23  E(vib)   ...       0.00 
freq.    3773.81  E(vib)   ...       0.00 

------------
INNER ENERGY
------------

The inner energy is: U= E(el) + E(ZPE) + E(vib) + E(rot) + E(trans)
    E(el)   - is the total energy from the electronic structure calculation
              = E(kin-el) + E(nuc-el) + E(el-el) + E(nuc-nuc)
    E(ZPE)  - the the zero temperature vibrational energy from the frequency calculation
    E(vib)  - the the finite temperature correction to E(ZPE) due to population
              of excited vibrational states
    E(rot)  - is the rotational thermal energy
    E(trans)- is the translational thermal energy

Summary of contributions to the inner energy U:
Electronic energy                ...   -701.34440593 Eh
Zero point energy                ...      0.20935344 Eh     131.37 kcal/mol
Thermal vibrational correction   ...      0.01031871 Eh       6.48 kcal/mol
Thermal rotational correction    ...      0.00141627 Eh       0.89 kcal/mol
Thermal translational correction ...      0.00141627 Eh       0.89 kcal/mol
-----------------------------------------------------------------------
Total thermal energy                   -701.12190123 Eh


Summary of corrections to the electronic energy:
(perhaps to be used in another calculation)
Total thermal correction                  0.01315126 Eh       8.25 kcal/mol
Non-thermal (ZPE) correction              0.20935344 Eh     131.37 kcal/mol
-----------------------------------------------------------------------
Total correction                          0.22250470 Eh     139.62 kcal/mol


--------
ENTHALPY
--------

The enthalpy is H = U + kB*T
                kB is Boltzmann's constant
Total free energy                 ...   -701.12190123 Eh 
Thermal Enthalpy correction       ...      0.00094421 Eh       0.59 kcal/mol
-----------------------------------------------------------------------
Total Enthalpy                    ...   -701.12095703 Eh


Note: Only C1 symmetry has been detected, increase convergence thresholds 
      if your molecule has a higher symmetry. Symmetry factor of 1.0 is   
      used for the rotational entropy correction. 
 

Note: Rotational entropy computed according to Herzberg 
Infrared and Raman Spectra, Chapter V,1, Van Nostrand Reinhold, 1945 
Point Group:  C1, Symmetry Number:   1  
Rotational constants in cm-1:     0.033279     0.027647     0.019385 

Vibrational entropy computed according to the QRRHO of S. Grimme
Chem.Eur.J. 2012 18 9955


-------
ENTROPY
-------

The entropy contributions are T*S = T*(S(el)+S(vib)+S(rot)+S(trans))
     S(el)   - electronic entropy
     S(vib)  - vibrational entropy
     S(rot)  - rotational entropy
     S(trans)- translational entropy
The entropies will be listed as multiplied by the temperature to get
units of energy

Electronic entropy                ...      0.00000000 Eh      0.00 kcal/mol
Vibrational entropy               ...      0.01796701 Eh     11.27 kcal/mol
Rotational entropy                ...      0.01467279 Eh      9.21 kcal/mol
Translational entropy             ...      0.01978162 Eh     12.41 kcal/mol
-----------------------------------------------------------------------
Final entropy term                ...      0.05242142 Eh     32.89 kcal/mol

In case the symmetry of your molecule has not been determined correctly
or in case you have a reason to use a different symmetry number we print 
out the resulting rotational entropy values for sn=1,12 :
 --------------------------------------------------------
|  sn= 1 | S(rot)=       0.01467279 Eh      9.21 kcal/mol|
|  sn= 2 | S(rot)=       0.01401834 Eh      8.80 kcal/mol|
|  sn= 3 | S(rot)=       0.01363550 Eh      8.56 kcal/mol|
|  sn= 4 | S(rot)=       0.01336388 Eh      8.39 kcal/mol|
|  sn= 5 | S(rot)=       0.01315319 Eh      8.25 kcal/mol|
|  sn= 6 | S(rot)=       0.01298105 Eh      8.15 kcal/mol|
|  sn= 7 | S(rot)=       0.01283550 Eh      8.05 kcal/mol|
|  sn= 8 | S(rot)=       0.01270942 Eh      7.98 kcal/mol|
|  sn= 9 | S(rot)=       0.01259821 Eh      7.91 kcal/mol|
|  sn=10 | S(rot)=       0.01249874 Eh      7.84 kcal/mol|
|  sn=11 | S(rot)=       0.01240875 Eh      7.79 kcal/mol|
|  sn=12 | S(rot)=       0.01232659 Eh      7.74 kcal/mol|
 --------------------------------------------------------


-------------------
GIBBS FREE ENERGY
-------------------

The Gibbs free energy is G = H - T*S

Total enthalpy                    ...   -701.12095703 Eh 
Total entropy correction          ...     -0.05242142 Eh    -32.89 kcal/mol
-----------------------------------------------------------------------
Final Gibbs free energy         ...   -701.17337844 Eh

For completeness - the Gibbs free energy minus the electronic energy
G-E(el)                           ...      0.17102749 Eh    107.32 kcal/mol


Timings for individual modules:

Sum of individual times         ...     9558.268 sec (= 159.304 min)
GTO integral calculation        ...       30.695 sec (=   0.512 min)   0.3 %
SCF iterations                  ...     2860.552 sec (=  47.676 min)  29.9 %
SCF Gradient evaluation         ...      554.059 sec (=   9.234 min)   5.8 %
Geometry relaxation             ...        1.075 sec (=   0.018 min)   0.0 %
Analytical frequency calculation...     5606.641 sec (=  93.444 min)  58.7 %
CHELPG charge generation        ...      505.246 sec (=   8.421 min)   5.3 %
                             ****ORCA TERMINATED NORMALLY****
TOTAL RUN TIME: 0 days 2 hours 41 minutes 7 seconds 530 msec
