
Lmod is automatically replacing "intel/2020.1.217" with "gcc/10.3.0".


Due to MODULEPATH changes, the following have been reloaded:
  1) blis/0.8.1     2) flexiblas/3.0.4

The following have been reloaded with a version change:
  1) gcccore/.9.3.0 => gcccore/.10.3.0        3) openmpi/4.0.3 => openmpi/4.1.1
  2) libfabric/1.10.1 => libfabric/1.12.1     4) ucx/1.8.0 => ucx/1.9.0

To execute ORCA, run: 
   ${EBROOTORCA}/orca orca.inp > orca.out

                                 *****************
                                 * O   R   C   A *
                                 *****************

                                            #,                                       
                                            ###                                      
                                            ####                                     
                                            #####                                    
                                            ######                                   
                                           ########,                                 
                                     ,,################,,,,,                         
                               ,,#################################,,                 
                          ,,##########################################,,             
                       ,#########################################, ''#####,          
                    ,#############################################,,   '####,        
                  ,##################################################,,,,####,       
                ,###########''''           ''''###############################       
              ,#####''   ,,,,##########,,,,          '''####'''          '####       
            ,##' ,,,,###########################,,,                        '##       
           ' ,,###''''                  '''############,,,                           
         ,,##''                                '''############,,,,        ,,,,,,###''
      ,#''                                            '''#######################'''  
     '                                                          ''''####''''         
             ,#######,   #######,   ,#######,      ##                                
            ,#'     '#,  ##    ##  ,#'     '#,    #''#        ######   ,####,        
            ##       ##  ##   ,#'  ##            #'  '#       #        #'  '#        
            ##       ##  #######   ##           ,######,      #####,   #    #        
            '#,     ,#'  ##    ##  '#,     ,#' ,#      #,         ##   #,  ,#        
             '#######'   ##     ##  '#######'  #'      '#     #####' # '####'        



                  #######################################################
                  #                        -***-                        #
                  #          Department of theory and spectroscopy      #
                  #    Directorship and core code : Frank Neese         #
                  #        Max Planck Institute fuer Kohlenforschung    #
                  #                Kaiser Wilhelm Platz 1               #
                  #                 D-45470 Muelheim/Ruhr               #
                  #                      Germany                        #
                  #                                                     #
                  #                  All rights reserved                #
                  #                        -***-                        #
                  #######################################################


                         Program Version 5.0.2 -  RELEASE  -


 With contributions from (in alphabetic order):
   Daniel Aravena         : Magnetic Suceptibility
   Michael Atanasov       : Ab Initio Ligand Field Theory (pilot matlab implementation)
   Alexander A. Auer      : GIAO ZORA, VPT2 properties, NMR spectrum
   Ute Becker             : Parallelization
   Giovanni Bistoni       : ED, misc. LED, open-shell LED, HFLD
   Martin Brehm           : Molecular dynamics
   Dmytro Bykov           : SCF Hessian
   Vijay G. Chilkuri      : MRCI spin determinant printing, contributions to CSF-ICE
   Dipayan Datta          : RHF DLPNO-CCSD density
   Achintya Kumar Dutta   : EOM-CC, STEOM-CC
   Dmitry Ganyushin       : Spin-Orbit,Spin-Spin,Magnetic field MRCI
   Miquel Garcia          : C-PCM and meta-GGA Hessian, CC/C-PCM, Gaussian charge scheme
   Yang Guo               : DLPNO-NEVPT2, F12-NEVPT2, CIM, IAO-localization
   Andreas Hansen         : Spin unrestricted coupled pair/coupled cluster methods
   Benjamin Helmich-Paris : MC-RPA, TRAH-SCF, COSX integrals
   Lee Huntington         : MR-EOM, pCC
   Robert Izsak           : Overlap fitted RIJCOSX, COSX-SCS-MP3, EOM
   Marcus Kettner         : VPT2
   Christian Kollmar      : KDIIS, OOCD, Brueckner-CCSD(T), CCSD density, CASPT2, CASPT2-K
   Simone Kossmann        : Meta GGA functionals, TD-DFT gradient, OOMP2, MP2 Hessian
   Martin Krupicka        : Initial AUTO-CI
   Lucas Lang             : DCDCAS
   Marvin Lechner         : AUTO-CI (C++ implementation), FIC-MRCC
   Dagmar Lenk            : GEPOL surface, SMD
   Dimitrios Liakos       : Extrapolation schemes; Compound Job, initial MDCI parallelization
   Dimitrios Manganas     : Further ROCIS development; embedding schemes
   Dimitrios Pantazis     : SARC Basis sets
   Anastasios Papadopoulos: AUTO-CI, single reference methods and gradients
   Taras Petrenko         : DFT Hessian,TD-DFT gradient, ASA, ECA, R-Raman, ABS, FL, XAS/XES, NRVS
   Peter Pinski           : DLPNO-MP2, DLPNO-MP2 Gradient
   Christoph Reimann      : Effective Core Potentials
   Marius Retegan         : Local ZFS, SOC
   Christoph Riplinger    : Optimizer, TS searches, QM/MM, DLPNO-CCSD(T), (RO)-DLPNO pert. Triples
   Tobias Risthaus        : Range-separated hybrids, TD-DFT gradient, RPA, STAB
   Michael Roemelt        : Original ROCIS implementation
   Masaaki Saitow         : Open-shell DLPNO-CCSD energy and density
   Barbara Sandhoefer     : DKH picture change effects
   Avijit Sen             : IP-ROCIS
   Kantharuban Sivalingam : CASSCF convergence, NEVPT2, FIC-MRCI
   Bernardo de Souza      : ESD, SOC TD-DFT
   Georgi Stoychev        : AutoAux, RI-MP2 NMR, DLPNO-MP2 response
   Willem Van den Heuvel  : Paramagnetic NMR
   Boris Wezisla          : Elementary symmetry handling
   Frank Wennmohs         : Technical directorship


 We gratefully acknowledge several colleagues who have allowed us to
 interface, adapt or use parts of their codes:
   Stefan Grimme, W. Hujo, H. Kruse, P. Pracht,  : VdW corrections, initial TS optimization,
                  C. Bannwarth, S. Ehlert          DFT functionals, gCP, sTDA/sTD-DF
   Ed Valeev, F. Pavosevic, A. Kumar             : LibInt (2-el integral package), F12 methods
   Garnet Chan, S. Sharma, J. Yang, R. Olivares  : DMRG
   Ulf Ekstrom                                   : XCFun DFT Library
   Mihaly Kallay                                 : mrcc  (arbitrary order and MRCC methods)
   Jiri Pittner, Ondrej Demel                    : Mk-CCSD
   Frank Weinhold                                : gennbo (NPA and NBO analysis)
   Christopher J. Cramer and Donald G. Truhlar   : smd solvation model
   Lars Goerigk                                  : TD-DFT with DH, B97 family of functionals
   V. Asgeirsson, H. Jonsson                     : NEB implementation
   FAccTs GmbH                                   : IRC, NEB, NEB-TS, DLPNO-Multilevel, CI-OPT
                                                   MM, QMMM, 2- and 3-layer-ONIOM, Crystal-QMMM,
                                                   LR-CPCM, SF, NACMEs, symmetry and pop. for TD-DFT,
                                                   nearIR, NL-DFT gradient (VV10), updates on ESD,
                                                   ML-optimized integration grids
   S Lehtola, MJT Oliveira, MAL Marques          : LibXC Library
   Liviu Ungur et al                             : ANISO software


 Your calculation uses the libint2 library for the computation of 2-el integrals
 For citations please refer to: http://libint.valeyev.net

 Your ORCA version has been built with support for libXC version: 5.1.0
 For citations please refer to: https://tddft.org/programs/libxc/

 This ORCA versions uses:
   CBLAS   interface :  Fast vector & matrix operations
   LAPACKE interface :  Fast linear algebra routines
   SCALAPACK package :  Parallel linear algebra routines
   Shared memory     :  Shared parallel matrices
   BLAS/LAPACK       :  OpenBLAS 0.3.15  USE64BITINT DYNAMIC_ARCH NO_AFFINITY Zen SINGLE_THREADED
        Core in use  :  Zen
   Copyright (c) 2011-2014, The OpenBLAS Project


Your calculation utilizes the atom-pairwise dispersion correction
with the Becke-Johnson damping scheme (D3BJ)
Cite in your paper:
S.Grimme, S.Ehrlich, L.Goerigk, J Comput Chem, (2011), 32, 1456–1465 
S.Grimme, J.Antony, S.Ehrlich and H.Krieg, J.Chem.Phys., 132, (2010), 154104 
   

================================================================================

----- Orbital basis set information -----
Your calculation utilizes the basis: def2-TZVPP
   F. Weigend and R. Ahlrichs, Phys. Chem. Chem. Phys. 7, 3297 (2005).

----- AuxJ basis set information -----
Your calculation utilizes the auxiliary basis: def2/J
   F. Weigend, Phys. Chem. Chem. Phys. 8, 1057 (2006).

================================================================================
                                        WARNINGS
                       Please study these warnings very carefully!
================================================================================


WARNING: Geometry Optimization
  ===> : Switching off AutoStart
         For restart on a previous wavefunction, please use MOREAD

INFO   : the flag for use of the SHARK integral package has been found!

================================================================================
                                       INPUT FILE
================================================================================
NAME = GGG-H_tt_028_OptFreq.inp
|  1> # GGG-H_tt_028 (old 171)
|  2> ! wB97X-D3BJ Opt Freq def2-TZVPP def2/J RIJCOSX VeryTightSCF
|  3> ! PAL8 defgrid3 VeryTightOpt
|  4> 
|  5> %maxcore 4096
|  6> 
|  7> %geom
|  8>   MaxIter 300
|  9>   # MaxStep 0.1
| 10>   Calc_Hess true
| 11>   Recalc_Hess 10
| 12> end
| 13> 
| 14> %chelpg
| 15>   grid 0.1
| 16>   rmax 3.0
| 17> end
| 18> 
| 19> * xyz 1 1 
| 20>  N   -1.537226   +1.408850   -2.951958
| 21>  H   -2.343358   +1.823106   -2.485214
| 22>  C   -1.705771   +0.966275   -4.323163
| 23>  C   -2.167362   -0.512647   -4.341460
| 24>  H   -2.437564   +1.617103   -4.829817
| 25>  H   -0.742383   +1.046124   -4.855740
| 26>  O   -2.290110   -1.168267   -3.334439
| 27>  C   -0.571797   +0.860986   -2.186652
| 28>  C   -0.656610   +1.111669   -0.665037
| 29>  O   +0.355425   +0.196665   -2.691429
| 30>  N   +0.000000   +0.000000   +0.000000
| 31>  H   -1.698960   +1.212460   -0.325358
| 32>  H   -0.106934   +2.034642   -0.414736
| 33>  H   -0.468854   -0.902181   -0.090307
| 34>  C   +1.369894   +0.000000   +0.000000
| 35>  C   +2.033035   -1.355958   -0.292146
| 36>  O   +2.067772   +1.005062   +0.000000
| 37>  H   +1.357808   -2.223935   -0.261223
| 38>  H   +2.919406   -1.530636   +0.334132
| 39>  O   -2.395659   -1.038300   -5.559672
| 40>  H   -2.274076   -0.377346   -6.269676
| 41>  N   +2.464924   -1.145616   -1.728371
| 42>  H   +2.799197   -2.001129   -2.195101
| 43>  H   +1.624896   -0.700543   -2.245693
| 44>  H   +3.213801   -0.432586   -1.745953
| 45> *
| 46> 
| 47>                          ****END OF INPUT****
================================================================================

                       *****************************
                       * Geometry Optimization Run *
                       *****************************

Geometry optimization settings:
Update method            Update   .... BFGS
Choice of coordinates    CoordSys .... Z-matrix Internals
Initial Hessian          InHess   .... Almoef's Model

Convergence Tolerances:
Energy Change            TolE     ....  2.0000e-07 Eh
Max. Gradient            TolMAXG  ....  3.0000e-05 Eh/bohr
RMS Gradient             TolRMSG  ....  8.0000e-06 Eh/bohr
Max. Displacement        TolMAXD  ....  2.0000e-04 bohr
RMS Displacement         TolRMSD  ....  1.0000e-04 bohr
Strict Convergence                ....  False
------------------------------------------------------------------------------
                        ORCA OPTIMIZATION COORDINATE SETUP
------------------------------------------------------------------------------

The optimization will be done in new redundant internal coordinates
Making redundant internal coordinates   ...  (new redundants) done
Evaluating the initial hessian          ...  (Is done on the fly) done
Evaluating the coordinates              ...  done
Calculating the B-matrix                .... done
Calculating the G-matrix                .... done
Diagonalizing the G-matrix              .... done
Small eigenvalue found = 4.149e-03
Small eigenvalue found = 1.544e-02
Small eigenvalue found = 1.693e-02
Small eigenvalue found = 2.850e-02
The first mode is                       ....   44
The number of degrees of freedom        ....   69

    -----------------------------------------------------------------
                    Redundant Internal Coordinates


    -----------------------------------------------------------------
         Definition                    Initial Value    d2E/dq (diagonal element)
    -----------------------------------------------------------------
      1. B(H   1,N   0)                  1.0195         0.000000   
      2. B(C   2,N   0)                  1.4507         0.000000   
      3. B(C   3,C   2)                  1.5494         0.000000   
      4. B(H   4,C   2)                  1.1026         0.000000   
      5. B(H   5,C   2)                  1.1037         0.000000   
      6. B(O   6,C   3)                  1.2079         0.000000   
      7. B(C   7,N   0)                  1.3483         0.000000   
      8. B(C   8,C   7)                  1.5445         0.000000   
      9. B(O   9,C   7)                  1.2473         0.000000   
     10. B(N  10,C   8)                  1.4523         0.000000   
     11. B(H  11,C   8)                  1.1009         0.000000   
     12. B(H  12,C   8)                  1.1030         0.000000   
     13. B(H  13,N  10)                  1.0207         0.000000   
     14. B(C  14,N  10)                  1.3699         0.000000   
     15. B(C  15,C  14)                  1.5374         0.000000   
     16. B(O  16,C  14)                  1.2236         0.000000   
     17. B(H  17,C  15)                  1.1001         0.000000   
     18. B(H  18,C  15)                  1.0993         0.000000   
     19. B(O  19,C   3)                  1.3463         0.000000   
     20. B(H  20,O  19)                  0.9776         0.000000   
     21. B(N  21,C  15)                  1.5144         0.000000   
     22. B(H  22,N  21)                  1.0303         0.000000   
     23. B(H  23,N  21)                  1.0823         0.000000   
     24. B(H  24,N  21)                  1.0342         0.000000   
     25. A(H   1,N   0,C   2)          117.7003         0.000000   
     26. A(C   2,N   0,C   7)          119.7184         0.000000   
     27. A(H   1,N   0,C   7)          118.1280         0.000000   
     28. A(C   3,C   2,H   5)          108.8690         0.000000   
     29. A(C   3,C   2,H   4)          111.1159         0.000000   
     30. A(N   0,C   2,H   4)          109.3511         0.000000   
     31. A(N   0,C   2,C   3)          109.6930         0.000000   
     32. A(N   0,C   2,H   5)          109.4279         0.000000   
     33. A(H   4,C   2,H   5)          108.3537         0.000000   
     34. A(O   6,C   3,O  19)          121.6840         0.000000   
     35. A(C   2,C   3,O  19)          115.7150         0.000000   
     36. A(C   2,C   3,O   6)          122.5833         0.000000   
     37. A(C   8,C   7,O   9)          121.7331         0.000000   
     38. A(N   0,C   7,O   9)          121.2639         0.000000   
     39. A(N   0,C   7,C   8)          116.9968         0.000000   
     40. A(C   7,C   8,H  11)          111.7668         0.000000   
     41. A(C   7,C   8,N  10)          107.5822         0.000000   
     42. A(H  11,C   8,H  12)          108.9776         0.000000   
     43. A(N  10,C   8,H  12)          108.1366         0.000000   
     44. A(C   7,C   8,H  12)          109.3912         0.000000   
     45. A(N  10,C   8,H  11)          110.9069         0.000000   
     46. A(H  13,N  10,C  14)          117.3437         0.000000   
     47. A(C   8,N  10,C  14)          116.8793         0.000000   
     48. A(C   8,N  10,H  13)          115.3635         0.000000   
     49. A(C  15,C  14,O  16)          118.5831         0.000000   
     50. A(N  10,C  14,O  16)          124.7747         0.000000   
     51. A(N  10,C  14,C  15)          115.5518         0.000000   
     52. A(H  17,C  15,H  18)          110.7026         0.000000   
     53. A(C  14,C  15,H  18)          112.3138         0.000000   
     54. A(C  14,C  15,H  17)          115.1994         0.000000   
     55. A(H  18,C  15,N  21)          109.4158         0.000000   
     56. A(H  17,C  15,N  21)          108.1362         0.000000   
     57. A(C  14,C  15,N  21)          100.4116         0.000000   
     58. A(C   3,O  19,H  20)          111.8454         0.000000   
     59. A(H  23,N  21,H  24)          105.6868         0.000000   
     60. A(H  22,N  21,H  24)          109.2606         0.000000   
     61. A(C  15,N  21,H  24)          108.5656         0.000000   
     62. A(H  22,N  21,H  23)          112.1333         0.000000   
     63. A(C  15,N  21,H  23)          106.8025         0.000000   
     64. A(C  15,N  21,H  22)          114.0048         0.000000   
     65. D(H   4,C   2,N   0,C   7)   -172.0876         0.000000   
     66. D(H   5,C   2,N   0,C   7)    -53.5488         0.000000   
     67. D(H   5,C   2,N   0,H   1)    150.5561         0.000000   
     68. D(H   4,C   2,N   0,H   1)     32.0173         0.000000   
     69. D(C   3,C   2,N   0,H   1)    -90.0723         0.000000   
     70. D(C   3,C   2,N   0,C   7)     65.8228         0.000000   
     71. D(O   6,C   3,C   2,H   4)   -124.2170         0.000000   
     72. D(O  19,C   3,C   2,H   5)    -61.9658         0.000000   
     73. D(O  19,C   3,C   2,H   4)     57.2898         0.000000   
     74. D(O   6,C   3,C   2,H   5)    116.5275         0.000000   
     75. D(O  19,C   3,C   2,N   0)    178.3203         0.000000   
     76. D(O   6,C   3,C   2,N   0)     -3.1865         0.000000   
     77. D(O   9,C   7,N   0,H   1)    171.1345         0.000000   
     78. D(C   8,C   7,N   0,C   2)   -165.5438         0.000000   
     79. D(C   8,C   7,N   0,H   1)     -9.7503         0.000000   
     80. D(O   9,C   7,N   0,C   2)     15.3410         0.000000   
     81. D(H  12,C   8,C   7,O   9)     89.4582         0.000000   
     82. D(H  12,C   8,C   7,N   0)    -89.6526         0.000000   
     83. D(H  11,C   8,C   7,O   9)   -149.7601         0.000000   
     84. D(N  10,C   8,C   7,O   9)    -27.7812         0.000000   
     85. D(N  10,C   8,C   7,N   0)    153.1080         0.000000   
     86. D(H  11,C   8,C   7,N   0)     31.1292         0.000000   
     87. D(C  14,N  10,C   8,H  12)    -41.0678         0.000000   
     88. D(C  14,N  10,C   8,H  11)   -160.5034         0.000000   
     89. D(C  14,N  10,C   8,C   7)     76.9853         0.000000   
     90. D(H  13,N  10,C   8,H  12)    174.8184         0.000000   
     91. D(H  13,N  10,C   8,H  11)     55.3828         0.000000   
     92. D(H  13,N  10,C   8,C   7)    -67.1285         0.000000   
     93. D(O  16,C  14,N  10,C   8)     30.8893         0.000000   
     94. D(C  15,C  14,N  10,H  13)      6.4425         0.000000   
     95. D(C  15,C  14,N  10,C   8)   -136.9520         0.000000   
     96. D(O  16,C  14,N  10,H  13)    174.2838         0.000000   
     97. D(N  21,C  15,C  14,O  16)    -65.1317         0.000000   
     98. D(N  21,C  15,C  14,N  10)    103.5058         0.000000   
     99. D(H  18,C  15,C  14,O  16)     51.0203         0.000000   
    100. D(H  18,C  15,C  14,N  10)   -140.3422         0.000000   
    101. D(H  17,C  15,C  14,O  16)    179.0043         0.000000   
    102. D(H  17,C  15,C  14,N  10)    -12.3581         0.000000   
    103. D(H  20,O  19,C   3,O   6)    178.6829         0.000000   
    104. D(H  20,O  19,C   3,C   2)     -2.8091         0.000000   
    105. D(H  24,N  21,C  15,H  18)    -50.3511         0.000000   
    106. D(H  24,N  21,C  15,H  17)   -171.0069         0.000000   
    107. D(H  24,N  21,C  15,C  14)     67.9480         0.000000   
    108. D(H  23,N  21,C  15,H  18)   -163.8894         0.000000   
    109. D(H  23,N  21,C  15,H  17)     75.4549         0.000000   
    110. D(H  23,N  21,C  15,C  14)    -45.5902         0.000000   
    111. D(H  22,N  21,C  15,H  18)     71.6875         0.000000   
    112. D(H  22,N  21,C  15,H  17)    -48.9683         0.000000   
    113. D(H  22,N  21,C  15,C  14)   -170.0134         0.000000   
    -----------------------------------------------------------------

Number of atoms                         .... 25
Number of degrees of freedom            .... 113

         *************************************************************
         *                GEOMETRY OPTIMIZATION CYCLE   1            *
         *************************************************************
---------------------------------
CARTESIAN COORDINATES (ANGSTROEM)
---------------------------------
  N     -1.537226    1.408850   -2.951958
  H     -2.343358    1.823106   -2.485214
  C     -1.705771    0.966275   -4.323163
  C     -2.167362   -0.512647   -4.341460
  H     -2.437564    1.617103   -4.829817
  H     -0.742383    1.046124   -4.855740
  O     -2.290110   -1.168267   -3.334439
  C     -0.571797    0.860986   -2.186652
  C     -0.656610    1.111669   -0.665037
  O      0.355425    0.196665   -2.691429
  N      0.000000    0.000000    0.000000
  H     -1.698960    1.212460   -0.325358
  H     -0.106934    2.034642   -0.414736
  H     -0.468854   -0.902181   -0.090307
  C      1.369894    0.000000    0.000000
  C      2.033035   -1.355958   -0.292146
  O      2.067772    1.005062    0.000000
  H      1.357808   -2.223935   -0.261223
  H      2.919406   -1.530636    0.334132
  O     -2.395659   -1.038300   -5.559672
  H     -2.274076   -0.377346   -6.269676
  N      2.464924   -1.145616   -1.728371
  H      2.799197   -2.001129   -2.195101
  H      1.624896   -0.700543   -2.245693
  H      3.213801   -0.432586   -1.745953

----------------------------
CARTESIAN COORDINATES (A.U.)
----------------------------
  NO LB      ZA    FRAG     MASS         X           Y           Z
   0 N     7.0000    0    14.007   -2.904936    2.662341   -5.578392
   1 H     1.0000    0     1.008   -4.428305    3.445171   -4.696374
   2 C     6.0000    0    12.011   -3.223440    1.825995   -8.169594
   3 C     6.0000    0    12.011   -4.095721   -0.968762   -8.204170
   4 H     1.0000    0     1.008   -4.606328    3.055882   -9.127031
   5 H     1.0000    0     1.008   -1.402901    1.976888   -9.176019
   6 O     8.0000    0    15.999   -4.327681   -2.207705   -6.301177
   7 C     6.0000    0    12.011   -1.080540    1.627028   -4.132173
   8 C     6.0000    0    12.011   -1.240813    2.100750   -1.256738
   9 O     8.0000    0    15.999    0.671656    0.371643   -5.086064
  10 N     7.0000    0    14.007    0.000000    0.000000    0.000000
  11 H     1.0000    0     1.008   -3.210569    2.291217   -0.614838
  12 H     1.0000    0     1.008   -0.202076    3.844916   -0.783737
  13 H     1.0000    0     1.008   -0.886006   -1.704875   -0.170655
  14 C     6.0000    0    12.011    2.588724    0.000000    0.000000
  15 C     6.0000    0    12.011    3.841879   -2.562389   -0.552076
  16 O     8.0000    0    15.999    3.907523    1.899292    0.000000
  17 H     1.0000    0     1.008    2.565885   -4.202628   -0.493640
  18 H     1.0000    0     1.008    5.516878   -2.892483    0.631418
  19 O     8.0000    0    15.999   -4.527139   -1.962103  -10.506257
  20 H     1.0000    0     1.008   -4.297381   -0.713081  -11.847971
  21 N     7.0000    0    14.007    4.658031   -2.164900   -3.266148
  22 H     1.0000    0     1.008    5.289716   -3.781586   -4.148140
  23 H     1.0000    0     1.008    3.070608   -1.323834   -4.243745
  24 H     1.0000    0     1.008    6.073204   -0.817469   -3.299373

--------------------------------
INTERNAL COORDINATES (ANGSTROEM)
--------------------------------
 N      0   0   0     0.000000000000     0.00000000     0.00000000
 H      1   0   0     1.019463975085     0.00000000     0.00000000
 C      1   2   0     1.450683700768   117.70032579     0.00000000
 C      3   1   2     1.549390626528   109.69298390   269.92767532
 H      3   1   2     1.102631559565   109.35107526    32.01728594
 H      3   1   2     1.103689522590   109.42785714   150.55611550
 O      4   3   1     1.207889047200   122.58326878   356.81348783
 C      1   2   3     1.348295735428   118.12802544   203.71526150
 C      8   1   2     1.544456998328   116.99682121   350.24968266
 O      8   1   2     1.247342313903   121.26394588   171.13447611
 N      9   8   1     1.452315003376   107.58224743   153.10799690
 H      9   8   1     1.100924235005   111.76676590    31.12915957
 H      9   8   1     1.103029217340   109.39116686   270.34741752
 H     11   9   8     1.020739920022   115.36347038   292.87151518
 C     11   9   8     1.369894000000   116.87931105    76.98533670
 C     15  11   9     1.537441826204   115.55183867   223.04797067
 O     15  11   9     1.223594429020   124.77468822    30.88925304
 H     16  15  11     1.100123541238   115.19935479   347.64185264
 H     16  15  11     1.099267977615   112.31379562   219.65777728
 O      4   3   1     1.346280458731   115.71504623   178.32026136
 H     20   4   3     0.977623800867   111.84539101   357.19090002
 N     16  15  11     1.514435246523   100.41158202   103.50580005
 H     22  16  15     1.030280459194   114.00480181   189.98662043
 H     22  16  15     1.082293429619   106.80248543   314.40976070
 H     22  16  15     1.034184542890   108.56556468    67.94802387

---------------------------
INTERNAL COORDINATES (A.U.)
---------------------------
 N      0   0   0     0.000000000000     0.00000000     0.00000000
 H      1   0   0     1.926507716309     0.00000000     0.00000000
 C      1   2   0     2.741394901396   117.70032579     0.00000000
 C      3   1   2     2.927923958603   109.69298390   269.92767532
 H      3   1   2     2.083671674197   109.35107526    32.01728594
 H      3   1   2     2.085670934573   109.42785714   150.55611550
 O      4   3   1     2.282579499371   122.58326878   356.81348783
 C      1   2   3     2.547909687493   118.12802544   203.71526150
 C      8   1   2     2.918600752457   116.99682121   350.24968266
 O      8   1   2     2.357135368529   121.26394588   171.13447611
 N      9   8   1     2.744477616565   107.58224743   153.10799690
 H      9   8   1     2.080445298357   111.76676590    31.12915957
 H      9   8   1     2.084423138486   109.39116686   270.34741752
 H     11   9   8     1.928918902802   115.36347038   292.87151518
 C     11   9   8     2.588724492502   116.87931105    76.98533670
 C     15  11   9     2.905343998361   115.55183867   223.04797067
 O     15  11   9     2.312258369839   124.77468822    30.88925304
 H     16  15  11     2.078932206420   115.19935479   347.64185264
 H     16  15  11     2.077315425481   112.31379562   219.65777728
 O      4   3   1     2.544101366452   115.71504623   178.32026136
 H     20   4   3     1.847441245641   111.84539101   357.19090002
 N     16  15  11     2.861867863485   100.41158202   103.50580005
 H     22  16  15     1.946947909008   114.00480181   189.98662043
 H     22  16  15     2.045238178523   106.80248543   314.40976070
 H     22  16  15     1.954325557997   108.56556468    67.94802387

---------------------
BASIS SET INFORMATION
---------------------
There are 4 groups of distinct atoms

 Group   1 Type N   : 11s6p2d1f contracted to 5s3p2d1f pattern {62111/411/11/1}
 Group   2 Type H   : 5s2p1d contracted to 3s2p1d pattern {311/11/1}
 Group   3 Type C   : 11s6p2d1f contracted to 5s3p2d1f pattern {62111/411/11/1}
 Group   4 Type O   : 11s6p2d1f contracted to 5s3p2d1f pattern {62111/411/11/1}

Atom   0N    basis set group =>   1
Atom   1H    basis set group =>   2
Atom   2C    basis set group =>   3
Atom   3C    basis set group =>   3
Atom   4H    basis set group =>   2
Atom   5H    basis set group =>   2
Atom   6O    basis set group =>   4
Atom   7C    basis set group =>   3
Atom   8C    basis set group =>   3
Atom   9O    basis set group =>   4
Atom  10N    basis set group =>   1
Atom  11H    basis set group =>   2
Atom  12H    basis set group =>   2
Atom  13H    basis set group =>   2
Atom  14C    basis set group =>   3
Atom  15C    basis set group =>   3
Atom  16O    basis set group =>   4
Atom  17H    basis set group =>   2
Atom  18H    basis set group =>   2
Atom  19O    basis set group =>   4
Atom  20H    basis set group =>   2
Atom  21N    basis set group =>   1
Atom  22H    basis set group =>   2
Atom  23H    basis set group =>   2
Atom  24H    basis set group =>   2
---------------------------------
AUXILIARY/J BASIS SET INFORMATION
---------------------------------
There are 4 groups of distinct atoms

 Group   1 Type N   : 12s5p4d2f1g contracted to 6s4p3d1f1g pattern {711111/2111/211/2/1}
 Group   2 Type H   : 5s2p1d contracted to 3s1p1d pattern {311/2/1}
 Group   3 Type C   : 12s5p4d2f1g contracted to 6s4p3d1f1g pattern {711111/2111/211/2/1}
 Group   4 Type O   : 12s5p4d2f1g contracted to 6s4p3d1f1g pattern {711111/2111/211/2/1}

Atom   0N    basis set group =>   1
Atom   1H    basis set group =>   2
Atom   2C    basis set group =>   3
Atom   3C    basis set group =>   3
Atom   4H    basis set group =>   2
Atom   5H    basis set group =>   2
Atom   6O    basis set group =>   4
Atom   7C    basis set group =>   3
Atom   8C    basis set group =>   3
Atom   9O    basis set group =>   4
Atom  10N    basis set group =>   1
Atom  11H    basis set group =>   2
Atom  12H    basis set group =>   2
Atom  13H    basis set group =>   2
Atom  14C    basis set group =>   3
Atom  15C    basis set group =>   3
Atom  16O    basis set group =>   4
Atom  17H    basis set group =>   2
Atom  18H    basis set group =>   2
Atom  19O    basis set group =>   4
Atom  20H    basis set group =>   2
Atom  21N    basis set group =>   1
Atom  22H    basis set group =>   2
Atom  23H    basis set group =>   2
Atom  24H    basis set group =>   2


           ************************************************************
           *        Program running with 8 parallel MPI-processes     *
           *              working on a common directory               *
           ************************************************************
------------------------------------------------------------------------------
                           ORCA GTO INTEGRAL CALCULATION
                           -- RI-GTO INTEGRALS CHOSEN --
------------------------------------------------------------------------------
------------------------------------------------------------------------------
                   ___                                                        
                  /   \      - P O W E R E D   B Y -                         
                 /     \                                                     
                 |  |  |   _    _      __       _____    __    __             
                 |  |  |  | |  | |    /  \     |  _  \  |  |  /  |          
                  \  \/   | |  | |   /    \    | | | |  |  | /  /          
                 / \  \   | |__| |  /  /\  \   | |_| |  |  |/  /          
                |  |  |   |  __  | /  /__\  \  |    /   |      \           
                |  |  |   | |  | | |   __   |  |    \   |  |\   \          
                \     /   | |  | | |  |  |  |  | |\  \  |  | \   \       
                 \___/    |_|  |_| |__|  |__|  |_| \__\ |__|  \__/        
                                                                              
                      - O R C A' S   B I G   F R I E N D -                    
                                      &                                       
                       - I N T E G R A L  F E E D E R -                       
                                                                              
 v1 FN, 2020, v2 2021                                                         
------------------------------------------------------------------------------


Reading SHARK input file GGG-H_tt_028_OptFreq.SHARKINP.tmp ... ok
----------------------
SHARK INTEGRAL PACKAGE
----------------------

Number of atoms                             ...     25
Number of basis functions                   ...    571
Number of shells                            ...    215
Maximum angular momentum                    ...      3
Integral batch strategy                     ... SHARK/LIBINT Hybrid
RI-J (if used) integral strategy            ... SPLIT-RIJ (Revised 2003 algorithm where possible)
Printlevel                                  ...      1
Contraction scheme used                     ... SEGMENTED contraction
Coulomb Range Separation                    ... NOT USED
Exchange Range Separation                   ... Long Range
   Mu parameter                             ...  0.300000
   Scaling (regular/separated)              ...  0.167000  0.833000
Finite Nucleus Model                        ... NOT USED
Auxiliary Coulomb fitting basis             ... AVAILABLE
   # of basis functions in Aux-J            ...    769
   # of shells in Aux-J                     ...    255
   Maximum angular momentum in Aux-J        ...      4
Auxiliary J/K fitting basis                 ... NOT available
Auxiliary Correlation fitting basis         ... NOT available
Auxiliary 'external' fitting basis          ... NOT available
Integral threshold                          ...     1.000000e-12
Primitive cut-off                           ...     1.000000e-14
Primitive pair pre-selection threshold      ...     1.000000e-14

Calculating pre-screening integrals         ... done (  0.0 sec) Dimension = 215
Organizing shell pair data                  ... done (  0.2 sec)
Shell pair information
Total number of shell pairs                 ...     23220
Shell pairs after pre-screening             ...     19123
Total number of primitive shell pairs       ...     63868
Primitive shell pairs kept                  ...     38486
          la=0 lb=0:   4201 shell pairs
          la=1 lb=0:   5388 shell pairs
          la=1 lb=1:   1776 shell pairs
          la=2 lb=0:   3011 shell pairs
          la=2 lb=1:   1991 shell pairs
          la=2 lb=2:    577 shell pairs
          la=3 lb=0:   1042 shell pairs
          la=3 lb=1:    686 shell pairs
          la=3 lb=2:    381 shell pairs
          la=3 lb=3:     70 shell pairs

Calculating one electron integrals          ... done (  0.0 sec)
Calculating RI/J V-Matrix + Cholesky decomp.... done (  0.4 sec)
Calculating Nuclear repulsion               ... done (  0.0 sec) ENN=    862.637426148818 Eh

SHARK setup successfully completed in   1.3 seconds

Maximum memory used throughout the entire GTOINT-calculation: 31.0 MB


           ************************************************************
           *        Program running with 8 parallel MPI-processes     *
           *              working on a common directory               *
           ************************************************************
-------------------------------------------------------------------------------
                                 ORCA SCF
-------------------------------------------------------------------------------

------------
SCF SETTINGS
------------
Hamiltonian:
 Density Functional     Method          .... DFT(GTOs)
 Exchange Functional    Exchange        .... WB97X-V
 Correlation Functional Correlation     .... WB97X-V
 Gradients option       PostSCFGGA      .... off
 Hybrid DFT is turned on
   Fraction HF Exchange ScalHFX         ....  0.167000
   Scaling of DF-GGA-X  ScalDFX         ....  0.000000
   Scaling of DF-GGA-C  ScalDFC         ....  1.000000
   Scaling of DF-LDA-C  ScalLDAC        ....  1.000000
   Perturbative correction              ....  0.000000
   Density functional embedding theory  .... OFF
 Long-range corrected/Screened/Range-Separated Hybrid DFT is turned on
   Amount of maximum screened exact exchange              ....  0.833000
   Range separation parameter mu (erf(mu*r12)/r12)        ....  0.300000
 RI-approximation to the Coulomb term is turned on
   Number of AuxJ basis functions       .... 769
   RIJ-COSX (HFX calculated with COS-X)).... on


General Settings:
 Integral files         IntName         .... GGG-H_tt_028_OptFreq
 Hartree-Fock type      HFTyp           .... RHF
 Total Charge           Charge          ....    1
 Multiplicity           Mult            ....    1
 Number of Electrons    NEL             ....  100
 Basis Dimension        Dim             ....  571
 Nuclear Repulsion      ENuc            ....    862.6374261488 Eh

Convergence Acceleration:
 DIIS                   CNVDIIS         .... on
   Start iteration      DIISMaxIt       ....    12
   Startup error        DIISStart       ....  0.200000
   # of expansion vecs  DIISMaxEq       ....     5
   Bias factor          DIISBfac        ....   1.050
   Max. coefficient     DIISMaxC        ....  10.000
 Trust-Rad. Augm. Hess. CNVTRAH         .... auto
   Auto Start mean grad. ratio tolernc. ....  1.125000
   Auto Start start iteration           ....    20
   Auto Start num. interpolation iter.  ....    10
   Max. Number of Micro iterations      ....    16
   Max. Number of Macro iterations      .... Maxiter - #DIIS iter
   Number of Davidson start vectors     ....     2
   Converg. threshold I  (grad. norm)   ....   2.000e-06
   Converg. threshold II (energy diff.) ....   1.000e-09
   Grad. Scal. Fac. for Micro threshold ....   0.100
   Minimum threshold for Micro iter.    ....   0.010
   NR start threshold (gradient norm)   ....   0.001
   Initial trust radius                 ....   0.400
   Minimum AH scaling param. (alpha)    ....   1.000
   Maximum AH scaling param. (alpha)    .... 1000.000
   Orbital update algorithm             .... Taylor
   White noise on init. David. guess    .... on
   Maximum white noise                  ....   0.010
   Quad. conv. algorithm                .... NR
 SOSCF                  CNVSOSCF        .... on
   Start iteration      SOSCFMaxIt      ....   150
   Startup grad/error   SOSCFStart      ....  0.003300
 Level Shifting         CNVShift        .... on
   Level shift para.    LevelShift      ....    0.2500
   Turn off err/grad.   ShiftErr        ....    0.0010
 Zerner damping         CNVZerner       .... off
 Static damping         CNVDamp         .... on
   Fraction old density DampFac         ....    0.7000
   Max. Damping (<1)    DampMax         ....    0.9800
   Min. Damping (>=0)   DampMin         ....    0.0000
   Turn off err/grad.   DampErr         ....    0.1000
 Fernandez-Rico         CNVRico         .... off

SCF Procedure:
 Maximum # iterations   MaxIter         ....   125
 SCF integral mode      SCFMode         .... Direct
   Integral package                     .... SHARK and LIBINT hybrid scheme
 Reset frequency        DirectResetFreq ....    20
 Integral Threshold     Thresh          ....  1.000e-12 Eh
 Primitive CutOff       TCut            ....  1.000e-14 Eh

Convergence Tolerance:
 Convergence Check Mode ConvCheckMode   .... Total+1el-Energy
 Convergence forced     ConvForced      .... 0
 Energy Change          TolE            ....  1.000e-09 Eh
 1-El. energy change                    ....  1.000e-06 Eh
 Orbital Gradient       TolG            ....  2.000e-06
 Orbital Rotation angle TolX            ....  2.000e-06
 DIIS Error             TolErr          ....  1.000e-08


Diagonalization of the overlap matrix:
Smallest eigenvalue                        ... 1.228e-04
Time for diagonalization                   ...    0.046 sec
Threshold for overlap eigenvalues          ... 1.000e-08
Number of eigenvalues below threshold      ... 0
Time for construction of square roots      ...    0.082 sec
Total time needed                          ...    0.133 sec

Time for model grid setup =    0.318 sec

------------------------------
INITIAL GUESS: MODEL POTENTIAL
------------------------------
Loading Hartree-Fock densities                     ... done
Calculating cut-offs                               ... done
Initializing the effective Hamiltonian             ... done
Setting up the integral package (SHARK)            ... done
Starting the Coulomb interaction                   ... done (   0.5 sec)
Reading the grid                                   ... done
Mapping shells                                     ... done
Starting the XC term evaluation                    ... done (   0.2 sec)
  promolecular density results
     # of electrons  =    100.999436305
     EX              =    -58.967176951
     EC              =     -4.267049851
     EX+EC           =    -63.234226801
Transforming the Hamiltonian                       ... done (   0.1 sec)
Diagonalizing the Hamiltonian                      ... done (   0.1 sec)
Back transforming the eigenvectors                 ... done (   0.0 sec)
Now organizing SCF variables                       ... done
                      ------------------
                      INITIAL GUESS DONE (   1.2 sec)
                      ------------------
-------------------
DFT GRID GENERATION
-------------------

General Integration Accuracy     IntAcc      ... 4.959
Radial Grid Type                 RadialGrid  ... OptM3 with GC (2021)
Angular Grid (max. ang.)         AngularGrid ... 6 (Lebedev-590)
Angular grid pruning method      GridPruning ... 4 (adaptive)
Weight generation scheme         WeightScheme... Becke
Basis function cutoff            BFCut       ... 1.0000e-12
Integration weight cutoff        WCut        ... 1.0000e-14
Angular grids for H and He will be reduced by one unit
Partially contracted basis set               ... off
Rotationally invariant grid construction     ... off

Total number of grid points                  ...   289072
Total number of batches                      ...     4532
Average number of points per batch           ...       63
Average number of grid points per atom       ...    11563
Time for grid setup =    3.272 sec

--------------------
COSX GRID GENERATION
--------------------

GRIDX 1
-------
General Integration Accuracy     IntAcc      ... 4.020
Radial Grid Type                 RadialGrid  ... OptM3 with GC (2021)
Angular Grid (max. ang.)         AngularGrid ... 2 (Lebedev-110)
Angular grid pruning method      GridPruning ... 4 (adaptive)
Weight generation scheme         WeightScheme... Becke
Basis function cutoff            BFCut       ... 1.0000e-12
Integration weight cutoff        WCut        ... 1.0000e-14
Angular grids for H and He will be reduced by one unit
Partially contracted basis set               ... on
Rotationally invariant grid construction     ... off

Total number of grid points                  ...    32200
Total number of batches                      ...      517
Average number of points per batch           ...       62
Average number of grid points per atom       ...     1288
UseSFitting                                  ... on

GRIDX 2
-------
General Integration Accuracy     IntAcc      ... 4.338
Radial Grid Type                 RadialGrid  ... OptM3 with GC (2021)
Angular Grid (max. ang.)         AngularGrid ... 3 (Lebedev-194)
Angular grid pruning method      GridPruning ... 4 (adaptive)
Weight generation scheme         WeightScheme... Becke
Basis function cutoff            BFCut       ... 1.0000e-12
Integration weight cutoff        WCut        ... 1.0000e-14
Angular grids for H and He will be reduced by one unit
Partially contracted basis set               ... on
Rotationally invariant grid construction     ... off

Total number of grid points                  ...    70529
Total number of batches                      ...     1116
Average number of points per batch           ...       63
Average number of grid points per atom       ...     2821
UseSFitting                                  ... on

GRIDX 3
-------
General Integration Accuracy     IntAcc      ... 4.871
Radial Grid Type                 RadialGrid  ... OptM3 with GC (2021)
Angular Grid (max. ang.)         AngularGrid ... 4 (Lebedev-302)
Angular grid pruning method      GridPruning ... 4 (adaptive)
Weight generation scheme         WeightScheme... Becke
Basis function cutoff            BFCut       ... 1.0000e-12
Integration weight cutoff        WCut        ... 1.0000e-14
Angular grids for H and He will be reduced by one unit
Partially contracted basis set               ... on
Rotationally invariant grid construction     ... off

Total number of grid points                  ...   133637
Total number of batches                      ...     2101
Average number of points per batch           ...       63
Average number of grid points per atom       ...     5345
UseSFitting                                  ... on

Time for X-Grid setup             =    2.200 sec

--------------
SCF ITERATIONS
--------------
ITER       Energy         Delta-E        Max-DP      RMS-DP      [F,P]     Damp
               ***  Starting incremental Fock matrix formation  ***
  0   -701.1561577741   0.000000000000 0.09476925  0.00052505  0.3427021 0.7000
  1   -701.2026548283  -0.046497054114 0.08811564  0.00047918  0.2342977 0.7000
                               ***Turning on DIIS***
  2   -701.2298556802  -0.027200851925 0.07029642  0.00037458  0.1629392 0.7000
  3   -701.2478298631  -0.017974182919 0.05577300  0.00029834  0.1124212 0.7000
  4   -701.2604740830  -0.012644219915 0.14247044  0.00078210  0.0774642 0.0000
                      *** Initiating the SOSCF procedure ***
                           *** Shutting down DIIS ***
                      *** Re-Reading the Fockian *** 
                      *** Removing any level shift *** 
ITER      Energy       Delta-E        Grad      Rot      Max-DP    RMS-DP
  5   -701.29104818  -0.0305740937  0.001558  0.001558  0.010218  0.000076
               *** Restarting incremental Fock matrix formation ***
  6   -701.29118623  -0.0001380519  0.000978  0.002263  0.005688  0.000045
  7   -701.29122706  -0.0000408298  0.000544  0.002194  0.003652  0.000033
  8   -701.29123700  -0.0000099448  0.000311  0.000455  0.001134  0.000011
  9   -701.29123943  -0.0000024222  0.000093  0.000070  0.000697  0.000005
 10   -701.29123966  -0.0000002345  0.000032  0.000085  0.000213  0.000002
 11   -701.29123980  -0.0000001378  0.000012  0.000035  0.000016  0.000000
 12   -701.29123980  -0.0000000049  0.000007  0.000017  0.000029  0.000000
 13   -701.29123981  -0.0000000024  0.000002  0.000010  0.000005  0.000000
 14   -701.29123981  -0.0000000004  0.000001  0.000004  0.000004  0.000000
                  ***Gradient check signals convergence***
              ***Rediagonalizing the Fockian in SOSCF/NRSCF***

               *****************************************************
               *                     SUCCESS                       *
               *           SCF CONVERGED AFTER  15 CYCLES          *
               *****************************************************

Old exchange energy                            =    -27.830582997 Eh
New exchange energy                            =    -27.830582260 Eh
Exchange energy change after final integration =      0.000000738 Eh
Total energy after final integration           =   -701.291239068 Eh
Final COS-X integration done in                =    32.883 sec

----------------
TOTAL SCF ENERGY
----------------

Total Energy       :         -701.29123907 Eh          -19083.10478 eV

Components:
Nuclear Repulsion  :          862.63742615 Eh           23473.55774 eV
Electronic Energy  :        -1563.92866522 Eh          -42556.66252 eV
One Electron Energy:        -2653.92911672 Eh          -72217.08271 eV
Two Electron Energy:         1090.00045150 Eh           29660.42019 eV
Max COSX asymmetry :            0.00000105 Eh               0.00003 eV

Virial components:
Potential Energy   :        -1399.25335743 Eh          -38075.61958 eV
Kinetic Energy     :          697.96211836 Eh           18992.51480 eV
Virial Ratio       :            2.00476977


DFT components:
N(Alpha)           :       50.000006315899 electrons
N(Beta)            :       50.000006315899 electrons
N(Total)           :      100.000012631799 electrons
E(X)               :      -60.044278866429 Eh       
E(C)               :       -4.264822995389 Eh       
E(XC)              :      -64.309101861818 Eh       
DFET-embed. en.    :        0.000000000000 Eh       

---------------
SCF CONVERGENCE
---------------

  Last Energy change         ...    1.6826e-10  Tolerance :   1.0000e-09
  Last MAX-Density change    ...    1.1102e-15  Tolerance :   1.0000e-08
  Last RMS-Density change    ...    1.2037e-17  Tolerance :   1.0000e-09
  Last Orbital Gradient      ...    3.6270e-07  Tolerance :   2.0000e-06
  Last Orbital Rotation      ...    5.2459e-07  Tolerance :   2.0000e-06

             **** THE GBW FILE WAS UPDATED (GGG-H_tt_028_OptFreq.gbw) ****
             **** DENSITY GGG-H_tt_028_OptFreq.scfp WAS UPDATED ****
             **** ENERGY FILE WAS UPDATED (GGG-H_tt_028_OptFreq.en.tmp) ****
             **** THE GBW FILE WAS UPDATED (GGG-H_tt_028_OptFreq.gbw) ****
             **** DENSITY GGG-H_tt_028_OptFreq.scfp WAS UPDATED ****
----------------
ORBITAL ENERGIES
----------------

  NO   OCC          E(Eh)            E(eV) 
   0   2.0000     -19.388030      -527.5751 
   1   2.0000     -19.353164      -526.6264 
   2   2.0000     -19.343695      -526.3687 
   3   2.0000     -19.325987      -525.8868 
   4   2.0000     -14.687503      -399.6673 
   5   2.0000     -14.599434      -397.2708 
   6   2.0000     -14.595658      -397.1680 
   7   2.0000     -10.545653      -286.9618 
   8   2.0000     -10.543682      -286.9082 
   9   2.0000     -10.536942      -286.7248 
  10   2.0000     -10.507485      -285.9232 
  11   2.0000     -10.473189      -284.9900 
  12   2.0000     -10.470755      -284.9237 
  13   2.0000      -1.361790       -37.0562 
  14   2.0000      -1.345423       -36.6108 
  15   2.0000      -1.330388       -36.2017 
  16   2.0000      -1.281572       -34.8734 
  17   2.0000      -1.276973       -34.7482 
  18   2.0000      -1.218265       -33.1507 
  19   2.0000      -1.216866       -33.1126 
  20   2.0000      -1.053492       -28.6670 
  21   2.0000      -1.025758       -27.9123 
  22   2.0000      -0.977283       -26.5932 
  23   2.0000      -0.885594       -24.0982 
  24   2.0000      -0.878266       -23.8988 
  25   2.0000      -0.862176       -23.4610 
  26   2.0000      -0.859269       -23.3819 
  27   2.0000      -0.844043       -22.9676 
  28   2.0000      -0.811675       -22.0868 
  29   2.0000      -0.788471       -21.4554 
  30   2.0000      -0.783455       -21.3189 
  31   2.0000      -0.758395       -20.6370 
  32   2.0000      -0.746311       -20.3082 
  33   2.0000      -0.732705       -19.9379 
  34   2.0000      -0.714075       -19.4310 
  35   2.0000      -0.705053       -19.1855 
  36   2.0000      -0.696685       -18.9578 
  37   2.0000      -0.687161       -18.6986 
  38   2.0000      -0.682854       -18.5814 
  39   2.0000      -0.672413       -18.2973 
  40   2.0000      -0.643526       -17.5112 
  41   2.0000      -0.636157       -17.3107 
  42   2.0000      -0.633713       -17.2442 
  43   2.0000      -0.620119       -16.8743 
  44   2.0000      -0.555642       -15.1198 
  45   2.0000      -0.551148       -14.9975 
  46   2.0000      -0.538293       -14.6477 
  47   2.0000      -0.532234       -14.4828 
  48   2.0000      -0.517341       -14.0776 
  49   2.0000      -0.507481       -13.8093 
  50   0.0000      -0.084823        -2.3082 
  51   0.0000      -0.062610        -1.7037 
  52   0.0000      -0.051231        -1.3941 
  53   0.0000      -0.031115        -0.8467 
  54   0.0000      -0.025809        -0.7023 
  55   0.0000      -0.019833        -0.5397 
  56   0.0000      -0.014695        -0.3999 
  57   0.0000      -0.002601        -0.0708 
  58   0.0000       0.014892         0.4052 
  59   0.0000       0.031714         0.8630 
  60   0.0000       0.035015         0.9528 
  61   0.0000       0.047918         1.3039 
  62   0.0000       0.062211         1.6929 
  63   0.0000       0.069646         1.8952 
  64   0.0000       0.073472         1.9993 
  65   0.0000       0.084985         2.3126 
  66   0.0000       0.092449         2.5157 
  67   0.0000       0.105346         2.8666 
  68   0.0000       0.111735         3.0405 
  69   0.0000       0.117075         3.1858 
  70   0.0000       0.123329         3.3559 
  71   0.0000       0.124986         3.4010 
  72   0.0000       0.135477         3.6865 
  73   0.0000       0.153240         4.1699 
  74   0.0000       0.156487         4.2582 
  75   0.0000       0.167929         4.5696 
  76   0.0000       0.183674         4.9980 
  77   0.0000       0.191207         5.2030 
  78   0.0000       0.201865         5.4930 
  79   0.0000       0.217564         5.9202 
  80   0.0000       0.228086         6.2065 
  81   0.0000       0.231773         6.3069 
  82   0.0000       0.247053         6.7227 
  83   0.0000       0.252228         6.8635 
  84   0.0000       0.253863         6.9080 
  85   0.0000       0.263598         7.1729 
  86   0.0000       0.267507         7.2792 
  87   0.0000       0.280732         7.6391 
  88   0.0000       0.287814         7.8318 
  89   0.0000       0.298787         8.1304 
  90   0.0000       0.308555         8.3962 
  91   0.0000       0.315083         8.5738 
  92   0.0000       0.317936         8.6515 
  93   0.0000       0.326559         8.8861 
  94   0.0000       0.327064         8.8999 
  95   0.0000       0.334465         9.1013 
  96   0.0000       0.338570         9.2130 
  97   0.0000       0.345649         9.4056 
  98   0.0000       0.348517         9.4836 
  99   0.0000       0.356158         9.6916 
 100   0.0000       0.363220         9.8837 
 101   0.0000       0.364231         9.9112 
 102   0.0000       0.372024        10.1233 
 103   0.0000       0.379985        10.3399 
 104   0.0000       0.389853        10.6085 
 105   0.0000       0.393239        10.7006 
 106   0.0000       0.402628        10.9561 
 107   0.0000       0.404477        11.0064 
 108   0.0000       0.413701        11.2574 
 109   0.0000       0.419478        11.4146 
 110   0.0000       0.430331        11.7099 
 111   0.0000       0.435060        11.8386 
 112   0.0000       0.445657        12.1269 
 113   0.0000       0.452830        12.3221 
 114   0.0000       0.477230        12.9861 
 115   0.0000       0.480326        13.0703 
 116   0.0000       0.493667        13.4334 
 117   0.0000       0.500018        13.6062 
 118   0.0000       0.507331        13.8052 
 119   0.0000       0.511187        13.9101 
 120   0.0000       0.523958        14.2576 
 121   0.0000       0.531964        14.4755 
 122   0.0000       0.544188        14.8081 
 123   0.0000       0.554015        15.0755 
 124   0.0000       0.569386        15.4938 
 125   0.0000       0.574278        15.6269 
 126   0.0000       0.587031        15.9739 
 127   0.0000       0.587964        15.9993 
 128   0.0000       0.615802        16.7568 
 129   0.0000       0.620942        16.8967 
 130   0.0000       0.644302        17.5323 
 131   0.0000       0.646550        17.5935 
 132   0.0000       0.654772        17.8172 
 133   0.0000       0.664583        18.0842 
 134   0.0000       0.672418        18.2974 
 135   0.0000       0.696852        18.9623 
 136   0.0000       0.704306        19.1651 
 137   0.0000       0.717889        19.5347 
 138   0.0000       0.729956        19.8631 
 139   0.0000       0.743162        20.2225 
 140   0.0000       0.753369        20.5002 
 141   0.0000       0.760400        20.6915 
 142   0.0000       0.773524        21.0487 
 143   0.0000       0.778914        21.1953 
 144   0.0000       0.793670        21.5969 
 145   0.0000       0.797305        21.6958 
 146   0.0000       0.805413        21.9164 
 147   0.0000       0.820165        22.3178 
 148   0.0000       0.826098        22.4793 
 149   0.0000       0.833441        22.6791 
 150   0.0000       0.864928        23.5359 
 151   0.0000       0.867969        23.6186 
 152   0.0000       0.880453        23.9584 
 153   0.0000       0.883737        24.0477 
 154   0.0000       0.886536        24.1239 
 155   0.0000       0.897986        24.4354 
 156   0.0000       0.912965        24.8430 
 157   0.0000       0.919745        25.0275 
 158   0.0000       0.936891        25.4941 
 159   0.0000       0.940352        25.5883 
 160   0.0000       0.960186        26.1280 
 161   0.0000       0.972850        26.4726 
 162   0.0000       0.981439        26.7063 
 163   0.0000       0.988220        26.8908 
 164   0.0000       0.995565        27.0907 
 165   0.0000       0.999464        27.1968 
 166   0.0000       1.023413        27.8485 
 167   0.0000       1.025481        27.9047 
 168   0.0000       1.037230        28.2245 
 169   0.0000       1.043324        28.3903 
 170   0.0000       1.056153        28.7394 
 171   0.0000       1.065288        28.9880 
 172   0.0000       1.074190        29.2302 
 173   0.0000       1.081967        29.4418 
 174   0.0000       1.095158        29.8008 
 175   0.0000       1.101807        29.9817 
 176   0.0000       1.112828        30.2816 
 177   0.0000       1.121932        30.5293 
 178   0.0000       1.137191        30.9445 
 179   0.0000       1.144684        31.1484 
 180   0.0000       1.152288        31.3554 
 181   0.0000       1.165188        31.7064 
 182   0.0000       1.186532        32.2872 
 183   0.0000       1.189071        32.3563 
 184   0.0000       1.195989        32.5445 
 185   0.0000       1.214007        33.0348 
 186   0.0000       1.219821        33.1930 
 187   0.0000       1.223698        33.2985 
 188   0.0000       1.242777        33.8177 
 189   0.0000       1.245157        33.8824 
 190   0.0000       1.255849        34.1734 
 191   0.0000       1.270875        34.5823 
 192   0.0000       1.301565        35.4174 
 193   0.0000       1.309664        35.6378 
 194   0.0000       1.317006        35.8376 
 195   0.0000       1.332719        36.2651 
 196   0.0000       1.351486        36.7758 
 197   0.0000       1.367049        37.1993 
 198   0.0000       1.371695        37.3257 
 199   0.0000       1.390759        37.8445 
 200   0.0000       1.396560        38.0023 
 201   0.0000       1.409734        38.3608 
 202   0.0000       1.414771        38.4979 
 203   0.0000       1.421981        38.6941 
 204   0.0000       1.446652        39.3654 
 205   0.0000       1.454154        39.5695 
 206   0.0000       1.458808        39.6962 
 207   0.0000       1.470137        40.0045 
 208   0.0000       1.470740        40.0209 
 209   0.0000       1.478547        40.2333 
 210   0.0000       1.485629        40.4260 
 211   0.0000       1.489388        40.5283 
 212   0.0000       1.507153        41.0117 
 213   0.0000       1.522301        41.4239 
 214   0.0000       1.533422        41.7265 
 215   0.0000       1.541372        41.9429 
 216   0.0000       1.557247        42.3748 
 217   0.0000       1.565837        42.6086 
 218   0.0000       1.579471        42.9796 
 219   0.0000       1.587242        43.1911 
 220   0.0000       1.597951        43.4825 
 221   0.0000       1.607044        43.7299 
 222   0.0000       1.617360        44.0106 
 223   0.0000       1.648028        44.8451 
 224   0.0000       1.675376        45.5893 
 225   0.0000       1.682033        45.7705 
 226   0.0000       1.693870        46.0925 
 227   0.0000       1.710550        46.5464 
 228   0.0000       1.727623        47.0110 
 229   0.0000       1.738982        47.3201 
 230   0.0000       1.751812        47.6692 
 231   0.0000       1.782996        48.5178 
 232   0.0000       1.794811        48.8393 
 233   0.0000       1.826278        49.6956 
 234   0.0000       1.857482        50.5447 
 235   0.0000       1.860205        50.6188 
 236   0.0000       1.886627        51.3377 
 237   0.0000       1.889367        51.4123 
 238   0.0000       1.898952        51.6731 
 239   0.0000       1.928153        52.4677 
 240   0.0000       1.934275        52.6343 
 241   0.0000       1.946620        52.9702 
 242   0.0000       1.959466        53.3198 
 243   0.0000       1.969071        53.5812 
 244   0.0000       1.989846        54.1465 
 245   0.0000       2.001806        54.4719 
 246   0.0000       2.028183        55.1897 
 247   0.0000       2.038307        55.4652 
 248   0.0000       2.056891        55.9708 
 249   0.0000       2.072924        56.4071 
 250   0.0000       2.098846        57.1125 
 251   0.0000       2.134138        58.0728 
 252   0.0000       2.157812        58.7171 
 253   0.0000       2.172752        59.1236 
 254   0.0000       2.191359        59.6299 
 255   0.0000       2.198052        59.8120 
 256   0.0000       2.228153        60.6311 
 257   0.0000       2.235237        60.8239 
 258   0.0000       2.264895        61.6309 
 259   0.0000       2.280025        62.0426 
 260   0.0000       2.297849        62.5277 
 261   0.0000       2.316419        63.0330 
 262   0.0000       2.332002        63.4570 
 263   0.0000       2.355967        64.1091 
 264   0.0000       2.376262        64.6614 
 265   0.0000       2.392874        65.1134 
 266   0.0000       2.401948        65.3603 
 267   0.0000       2.430260        66.1307 
 268   0.0000       2.458796        66.9072 
 269   0.0000       2.473612        67.3104 
 270   0.0000       2.502201        68.0883 
 271   0.0000       2.510993        68.3276 
 272   0.0000       2.519624        68.5625 
 273   0.0000       2.534249        68.9604 
 274   0.0000       2.541485        69.1573 
 275   0.0000       2.555236        69.5315 
 276   0.0000       2.566304        69.8327 
 277   0.0000       2.585903        70.3660 
 278   0.0000       2.601112        70.7799 
 279   0.0000       2.612118        71.0793 
 280   0.0000       2.623709        71.3947 
 281   0.0000       2.644168        71.9515 
 282   0.0000       2.660929        72.4076 
 283   0.0000       2.668822        72.6223 
 284   0.0000       2.677184        72.8499 
 285   0.0000       2.682545        72.9958 
 286   0.0000       2.704306        73.5879 
 287   0.0000       2.716872        73.9299 
 288   0.0000       2.723608        74.1131 
 289   0.0000       2.732663        74.3595 
 290   0.0000       2.749386        74.8146 
 291   0.0000       2.756967        75.0209 
 292   0.0000       2.765208        75.2451 
 293   0.0000       2.791729        75.9668 
 294   0.0000       2.802923        76.2714 
 295   0.0000       2.816190        76.6324 
 296   0.0000       2.846047        77.4449 
 297   0.0000       2.849221        77.5313 
 298   0.0000       2.860787        77.8460 
 299   0.0000       2.863068        77.9080 
 300   0.0000       2.878958        78.3404 
 301   0.0000       2.895503        78.7906 
 302   0.0000       2.897466        78.8441 
 303   0.0000       2.910619        79.2020 
 304   0.0000       2.927296        79.6558 
 305   0.0000       2.939032        79.9751 
 306   0.0000       2.959945        80.5442 
 307   0.0000       2.967321        80.7449 
 308   0.0000       2.981469        81.1299 
 309   0.0000       2.989610        81.3514 
 310   0.0000       3.006433        81.8092 
 311   0.0000       3.013766        82.0087 
 312   0.0000       3.021639        82.2230 
 313   0.0000       3.028306        82.4044 
 314   0.0000       3.042911        82.8018 
 315   0.0000       3.045908        82.8834 
 316   0.0000       3.061825        83.3165 
 317   0.0000       3.065512        83.4168 
 318   0.0000       3.076297        83.7103 
 319   0.0000       3.082271        83.8729 
 320   0.0000       3.088805        84.0506 
 321   0.0000       3.093826        84.1873 
 322   0.0000       3.104689        84.4829 
 323   0.0000       3.121324        84.9355 
 324   0.0000       3.132818        85.2483 
 325   0.0000       3.139175        85.4213 
 326   0.0000       3.147614        85.6509 
 327   0.0000       3.159633        85.9780 
 328   0.0000       3.171232        86.2936 
 329   0.0000       3.190388        86.8149 
 330   0.0000       3.197806        87.0167 
 331   0.0000       3.204955        87.2113 
 332   0.0000       3.209364        87.3312 
 333   0.0000       3.217183        87.5440 
 334   0.0000       3.237666        88.1014 
 335   0.0000       3.245516        88.3150 
 336   0.0000       3.246639        88.3455 
 337   0.0000       3.258688        88.6734 
 338   0.0000       3.276067        89.1463 
 339   0.0000       3.278769        89.2198 
 340   0.0000       3.294220        89.6403 
 341   0.0000       3.305062        89.9353 
 342   0.0000       3.320942        90.3674 
 343   0.0000       3.334791        90.7443 
 344   0.0000       3.340751        90.9064 
 345   0.0000       3.345860        91.0455 
 346   0.0000       3.359734        91.4230 
 347   0.0000       3.371919        91.7546 
 348   0.0000       3.379850        91.9704 
 349   0.0000       3.385952        92.1364 
 350   0.0000       3.393781        92.3495 
 351   0.0000       3.404103        92.6304 
 352   0.0000       3.414411        92.9109 
 353   0.0000       3.425232        93.2053 
 354   0.0000       3.433720        93.4363 
 355   0.0000       3.445207        93.7488 
 356   0.0000       3.457572        94.0853 
 357   0.0000       3.461170        94.1832 
 358   0.0000       3.483781        94.7985 
 359   0.0000       3.491602        95.0113 
 360   0.0000       3.497594        95.1744 
 361   0.0000       3.513423        95.6051 
 362   0.0000       3.522619        95.8553 
 363   0.0000       3.533929        96.1631 
 364   0.0000       3.541862        96.3790 
 365   0.0000       3.547478        96.5318 
 366   0.0000       3.572793        97.2206 
 367   0.0000       3.579161        97.3939 
 368   0.0000       3.584114        97.5287 
 369   0.0000       3.594493        97.8111 
 370   0.0000       3.615785        98.3905 
 371   0.0000       3.618444        98.4629 
 372   0.0000       3.629691        98.7689 
 373   0.0000       3.645273        99.1929 
 374   0.0000       3.652313        99.3845 
 375   0.0000       3.669846        99.8616 
 376   0.0000       3.688233       100.3619 
 377   0.0000       3.690878       100.4339 
 378   0.0000       3.715675       101.1086 
 379   0.0000       3.728958       101.4701 
 380   0.0000       3.747234       101.9674 
 381   0.0000       3.760096       102.3174 
 382   0.0000       3.775368       102.7330 
 383   0.0000       3.778105       102.8075 
 384   0.0000       3.789037       103.1049 
 385   0.0000       3.799440       103.3880 
 386   0.0000       3.815147       103.8154 
 387   0.0000       3.824912       104.0811 
 388   0.0000       3.845686       104.6464 
 389   0.0000       3.864948       105.1706 
 390   0.0000       3.872180       105.3674 
 391   0.0000       3.883101       105.6645 
 392   0.0000       3.891908       105.9042 
 393   0.0000       3.899603       106.1136 
 394   0.0000       3.908366       106.3520 
 395   0.0000       3.933787       107.0438 
 396   0.0000       3.947894       107.4277 
 397   0.0000       3.956474       107.6611 
 398   0.0000       3.964091       107.8684 
 399   0.0000       3.969400       108.0129 
 400   0.0000       3.988977       108.5456 
 401   0.0000       3.999345       108.8277 
 402   0.0000       4.006486       109.0220 
 403   0.0000       4.023919       109.4964 
 404   0.0000       4.040236       109.9404 
 405   0.0000       4.059222       110.4570 
 406   0.0000       4.074082       110.8614 
 407   0.0000       4.084395       111.1420 
 408   0.0000       4.099166       111.5440 
 409   0.0000       4.122710       112.1847 
 410   0.0000       4.127167       112.3059 
 411   0.0000       4.153352       113.0185 
 412   0.0000       4.156408       113.1016 
 413   0.0000       4.172791       113.5474 
 414   0.0000       4.174101       113.5831 
 415   0.0000       4.190508       114.0295 
 416   0.0000       4.200146       114.2918 
 417   0.0000       4.208108       114.5084 
 418   0.0000       4.226536       115.0099 
 419   0.0000       4.239433       115.3608 
 420   0.0000       4.255427       115.7961 
 421   0.0000       4.260573       115.9361 
 422   0.0000       4.277155       116.3873 
 423   0.0000       4.285683       116.6194 
 424   0.0000       4.304610       117.1344 
 425   0.0000       4.316616       117.4611 
 426   0.0000       4.330567       117.8407 
 427   0.0000       4.337911       118.0406 
 428   0.0000       4.374073       119.0246 
 429   0.0000       4.397487       119.6617 
 430   0.0000       4.413753       120.1043 
 431   0.0000       4.424572       120.3987 
 432   0.0000       4.475194       121.7762 
 433   0.0000       4.488588       122.1407 
 434   0.0000       4.500686       122.4699 
 435   0.0000       4.526783       123.1800 
 436   0.0000       4.535527       123.4180 
 437   0.0000       4.555033       123.9487 
 438   0.0000       4.572051       124.4118 
 439   0.0000       4.588387       124.8564 
 440   0.0000       4.611256       125.4786 
 441   0.0000       4.618093       125.6647 
 442   0.0000       4.634130       126.1011 
 443   0.0000       4.638520       126.2205 
 444   0.0000       4.669289       127.0578 
 445   0.0000       4.696797       127.8063 
 446   0.0000       4.712866       128.2436 
 447   0.0000       4.721547       128.4798 
 448   0.0000       4.733205       128.7971 
 449   0.0000       4.742385       129.0468 
 450   0.0000       4.758351       129.4813 
 451   0.0000       4.768626       129.7609 
 452   0.0000       4.795898       130.5030 
 453   0.0000       4.816194       131.0553 
 454   0.0000       4.838874       131.6725 
 455   0.0000       4.873941       132.6267 
 456   0.0000       4.878981       132.7638 
 457   0.0000       4.900769       133.3567 
 458   0.0000       4.910158       133.6122 
 459   0.0000       4.917208       133.8040 
 460   0.0000       4.943953       134.5318 
 461   0.0000       4.965020       135.1051 
 462   0.0000       4.994735       135.9137 
 463   0.0000       5.011050       136.3576 
 464   0.0000       5.030758       136.8939 
 465   0.0000       5.052315       137.4805 
 466   0.0000       5.063601       137.7876 
 467   0.0000       5.081463       138.2736 
 468   0.0000       5.093203       138.5931 
 469   0.0000       5.100380       138.7884 
 470   0.0000       5.110959       139.0763 
 471   0.0000       5.128186       139.5450 
 472   0.0000       5.133524       139.6903 
 473   0.0000       5.147968       140.0833 
 474   0.0000       5.172825       140.7597 
 475   0.0000       5.181238       140.9886 
 476   0.0000       5.186397       141.1290 
 477   0.0000       5.196057       141.3919 
 478   0.0000       5.198901       141.4693 
 479   0.0000       5.221349       142.0801 
 480   0.0000       5.246552       142.7659 
 481   0.0000       5.260950       143.1577 
 482   0.0000       5.287521       143.8808 
 483   0.0000       5.301788       144.2690 
 484   0.0000       5.308298       144.4461 
 485   0.0000       5.324319       144.8821 
 486   0.0000       5.330511       145.0506 
 487   0.0000       5.356316       145.7528 
 488   0.0000       5.363575       145.9503 
 489   0.0000       5.377408       146.3267 
 490   0.0000       5.430126       147.7612 
 491   0.0000       5.451972       148.3557 
 492   0.0000       5.478421       149.0754 
 493   0.0000       5.492674       149.4633 
 494   0.0000       5.506439       149.8378 
 495   0.0000       5.525627       150.3600 
 496   0.0000       5.543973       150.8592 
 497   0.0000       5.548267       150.9760 
 498   0.0000       5.560273       151.3027 
 499   0.0000       5.570894       151.5917 
 500   0.0000       5.589373       152.0946 
 501   0.0000       5.598023       152.3299 
 502   0.0000       5.623072       153.0116 
 503   0.0000       5.629259       153.1799 
 504   0.0000       5.632421       153.2660 
 505   0.0000       5.663565       154.1134 
 506   0.0000       5.694698       154.9606 
 507   0.0000       5.725664       155.8032 
 508   0.0000       5.759153       156.7145 
 509   0.0000       5.780003       157.2819 
 510   0.0000       5.793853       157.6587 
 511   0.0000       5.823578       158.4676 
 512   0.0000       5.876195       159.8994 
 513   0.0000       5.891728       160.3221 
 514   0.0000       5.897003       160.4656 
 515   0.0000       5.917179       161.0146 
 516   0.0000       5.953706       162.0086 
 517   0.0000       5.987708       162.9338 
 518   0.0000       6.054958       164.7638 
 519   0.0000       6.082653       165.5174 
 520   0.0000       6.107727       166.1997 
 521   0.0000       6.131272       166.8404 
 522   0.0000       6.157125       167.5439 
 523   0.0000       6.204020       168.8200 
 524   0.0000       6.282741       170.9621 
 525   0.0000       6.325843       172.1349 
 526   0.0000       6.331788       172.2967 
 527   0.0000       6.354976       172.9277 
 528   0.0000       6.383586       173.7062 
 529   0.0000       6.385136       173.7484 
 530   0.0000       6.411747       174.4725 
 531   0.0000       6.430049       174.9705 
 532   0.0000       6.458432       175.7429 
 533   0.0000       6.470842       176.0806 
 534   0.0000       6.491284       176.6368 
 535   0.0000       6.511035       177.1743 
 536   0.0000       6.532773       177.7658 
 537   0.0000       6.566973       178.6964 
 538   0.0000       6.578431       179.0082 
 539   0.0000       6.582675       179.1237 
 540   0.0000       6.661501       181.2686 
 541   0.0000       6.722373       182.9251 
 542   0.0000       6.732517       183.2011 
 543   0.0000       6.743613       183.5030 
 544   0.0000       6.824475       185.7034 
 545   0.0000       6.838347       186.0809 
 546   0.0000       6.847859       186.3397 
 547   0.0000       6.863330       186.7607 
 548   0.0000       6.943218       188.9346 
 549   0.0000       6.986750       190.1191 
 550   0.0000       7.023230       191.1118 
 551   0.0000       7.049312       191.8215 
 552   0.0000       7.103428       193.2941 
 553   0.0000       7.114133       193.5854 
 554   0.0000       7.125516       193.8951 
 555   0.0000       7.360349       200.2853 
 556   0.0000       7.455526       202.8752 
 557   0.0000       7.503018       204.1675 
 558   0.0000      23.131614       629.4432 
 559   0.0000      23.197017       631.2229 
 560   0.0000      23.214350       631.6946 
 561   0.0000      23.259145       632.9135 
 562   0.0000      23.290133       633.7567 
 563   0.0000      23.357729       635.5961 
 564   0.0000      32.734647       890.7550 
 565   0.0000      32.776209       891.8860 
 566   0.0000      32.870735       894.4582 
 567   0.0000      43.857043      1193.4108 
 568   0.0000      43.876967      1193.9530 
 569   0.0000      43.961037      1196.2406 
 570   0.0000      44.024649      1197.9716 

                    ********************************
                    * MULLIKEN POPULATION ANALYSIS *
                    ********************************

-----------------------
MULLIKEN ATOMIC CHARGES
-----------------------
   0 N :   -0.180548
   1 H :    0.194887
   2 C :   -0.132315
   3 C :    0.310223
   4 H :    0.155836
   5 H :    0.141238
   6 O :   -0.305046
   7 C :    0.336329
   8 C :   -0.051550
   9 O :   -0.466639
  10 N :   -0.194018
  11 H :    0.138308
  12 H :    0.154841
  13 H :    0.188787
  14 C :    0.209339
  15 C :   -0.141986
  16 O :   -0.324624
  17 H :    0.148387
  18 H :    0.171105
  19 O :   -0.217367
  20 H :    0.227608
  21 N :   -0.076700
  22 H :    0.234172
  23 H :    0.239025
  24 H :    0.240712
Sum of atomic charges:    1.0000000

--------------------------------
MULLIKEN REDUCED ORBITAL CHARGES
--------------------------------
  0 N s       :     3.415145  s :     3.415145
      pz      :     1.073260  p :     3.704619
      px      :     1.167215
      py      :     1.464144
      dz2     :     0.013510  d :     0.056912
      dxz     :     0.017305
      dyz     :     0.012702
      dx2y2   :     0.006145
      dxy     :     0.007251
      f0      :     0.000554  f :     0.003872
      f+1     :     0.000773
      f-1     :     0.000666
      f+2     :     0.000364
      f-2     :     0.000542
      f+3     :     0.000485
      f-3     :     0.000488
  1 H s       :     0.738510  s :     0.738510
      pz      :     0.015514  p :     0.061296
      px      :     0.020520
      py      :     0.025262
      dz2     :     0.000844  d :     0.005307
      dxz     :     0.001138
      dyz     :     0.000549
      dx2y2   :     0.001480
      dxy     :     0.001296
  2 C s       :     3.180057  s :     3.180057
      pz      :     0.803975  p :     2.837189
      px      :     1.105459
      py      :     0.927755
      dz2     :     0.021112  d :     0.107437
      dxz     :     0.026921
      dyz     :     0.026759
      dx2y2   :     0.015987
      dxy     :     0.016659
      f0      :     0.002217  f :     0.007633
      f+1     :     0.001100
      f-1     :     0.001798
      f+2     :     0.000732
      f-2     :     0.000657
      f+3     :     0.000595
      f-3     :     0.000535
  3 C s       :     3.081419  s :     3.081419
      pz      :     0.691667  p :     2.317005
      px      :     0.742247
      py      :     0.883091
      dz2     :     0.082087  d :     0.267481
      dxz     :     0.076358
      dyz     :     0.060909
      dx2y2   :     0.025372
      dxy     :     0.022755
      f0      :     0.006355  f :     0.023873
      f+1     :     0.003344
      f-1     :     0.004339
      f+2     :     0.003701
      f-2     :     0.003943
      f+3     :     0.001068
      f-3     :     0.001122
  4 H s       :     0.808726  s :     0.808726
      pz      :     0.007672  p :     0.033456
      px      :     0.013531
      py      :     0.012253
      dz2     :     0.000495  d :     0.001983
      dxz     :     0.000331
      dyz     :     0.000203
      dx2y2   :     0.000698
      dxy     :     0.000256
  5 H s       :     0.823019  s :     0.823019
      pz      :     0.008351  p :     0.033670
      px      :     0.016289
      py      :     0.009031
      dz2     :     0.000531  d :     0.002073
      dxz     :     0.000427
      dyz     :     0.000184
      dx2y2   :     0.000276
      dxy     :     0.000656
  6 O s       :     3.797099  s :     3.797099
      pz      :     1.451004  p :     4.473501
      px      :     1.410785
      py      :     1.611711
      dz2     :     0.008623  d :     0.032494
      dxz     :     0.007965
      dyz     :     0.009021
      dx2y2   :     0.003017
      dxy     :     0.003868
      f0      :     0.000454  f :     0.001953
      f+1     :     0.000264
      f-1     :     0.000495
      f+2     :     0.000299
      f-2     :     0.000384
      f+3     :     0.000032
      f-3     :     0.000025
[...]
     53       0.117914  -0.000156   0.000394   0.101814  -0.006614   0.003636
     54       0.540854  -0.000410  -0.002338  -0.632934   0.007758  -0.000577
     55      -0.005961   0.000000   0.000119   0.020303   0.001206  -0.000662
     56       0.355882  -0.000334  -0.001364  -0.418028   0.003844   0.000172
     57       0.000006  -0.000183   0.000008  -0.000000   0.000026   0.000011
     58       0.000015   0.000046   0.000011   0.000000   0.000056   0.000033
     59       0.000012   0.000020  -0.000013   0.000002   0.000016   0.000015
     60      -0.000041   0.002850  -0.000027   0.000001  -0.000257  -0.000090
     61      -0.000088  -0.001070  -0.000040  -0.000006  -0.000496  -0.000244
     62       0.000021   0.000294  -0.000058   0.000015   0.000301   0.000072
     63      -0.002794   0.000242  -0.000195  -0.000704  -0.056894  -0.004643
     64      -0.000574  -0.000073   0.000039  -0.001550  -0.017092   0.078393
     65      -0.001106   0.000183  -0.000155   0.000602   0.016851   0.015401
     66      -0.001882   0.000144  -0.000111   0.000516   0.161177   0.336307
     67       0.008570  -0.000432   0.000421  -0.001880  -0.393021  -0.777632
     68      -0.002523  -0.000162   0.000132  -0.001788  -0.143344  -0.286569
     69       0.034998  -0.003859   0.003277  -0.009989   0.025847   0.026135
     70      -0.009289   0.001120  -0.000978   0.003593  -0.011769   0.004662
     71       0.027164  -0.002418   0.001997  -0.015615   0.028977   0.018877
     72       0.005028   0.000279  -0.000183   0.012487   0.599665  -0.304196
     73       0.004725   0.000302  -0.000258   0.015440   0.647665  -0.310086
     74       0.001281   0.000002  -0.000002   0.005297  -0.118880   0.061324
                 72         73         74    
      0       0.000380   0.054453   0.000062
      1      -0.000286  -0.037580   0.000134
      2      -0.000339  -0.032202   0.000082
      3      -0.006092  -0.744388   0.000585
      4       0.004096   0.494790  -0.000412
      5       0.003560   0.442038  -0.000140
      6      -0.000004   0.000898  -0.000096
      7       0.000003   0.000402  -0.000171
      8       0.000062   0.001122   0.000336
      9       0.000045   0.000061   0.001155
     10       0.000077   0.000109   0.002394
     11      -0.000060  -0.000061  -0.000933
     12      -0.000165  -0.004624  -0.001137
     13       0.000058   0.003254   0.000116
     14      -0.000158  -0.003804   0.000721
     15       0.000051  -0.006291   0.000826
     16      -0.000064   0.001565  -0.000877
     17       0.000031   0.006708   0.000667
     18      -0.000021   0.000007  -0.000313
     19      -0.000049   0.000003  -0.000596
     20       0.000038   0.000097   0.001000
     21       0.000175   0.000215  -0.000129
     22      -0.000101   0.000269   0.000042
     23      -0.000083  -0.001452  -0.000070
     24      -0.000948   0.000240  -0.000019
     25      -0.000103  -0.000101   0.000012
     26      -0.000976   0.000040   0.000000
     27      -0.000120  -0.001003   0.000082
     28       0.000108   0.000883  -0.000019
     29      -0.000041   0.000183   0.000010
     30      -0.030264   0.000246   0.000038
     31      -0.066445   0.000503  -0.000003
     32       0.004934  -0.000049   0.000016
     33       0.005181  -0.003344   0.000116
     34      -0.000245   0.001271  -0.000039
     35       0.000410   0.000505  -0.000049
     36       0.001980  -0.000432  -0.000012
     37       0.010697  -0.000087  -0.000157
     38      -0.000321   0.000125   0.000012
     39       0.396864  -0.003302  -0.000038
     40       0.913584  -0.007430  -0.000032
     41      -0.047066   0.000676  -0.000111
     42       0.001230   0.000031  -0.000067
     43      -0.001293   0.000008  -0.000019
     44      -0.000705   0.000039  -0.000002
     45      -0.000301  -0.000005  -0.000001
     46      -0.000248   0.000003  -0.000001
     47       0.000260   0.000019  -0.000001
     48       0.000722  -0.000028   0.000023
     49       0.000797  -0.000013   0.000016
     50      -0.000145  -0.000021  -0.000000
     51       0.005219  -0.000024  -0.000011
     52       0.004936  -0.000096   0.000042
     53      -0.001374   0.000047  -0.000032
     54       0.001345  -0.000004   0.000017
     55      -0.000097  -0.000009  -0.000003
     56      -0.000149   0.000049  -0.000019
     57      -0.000007   0.000055   0.018651
     58      -0.000013   0.000062   0.038795
     59       0.000007   0.000038  -0.045297
     60       0.000020  -0.000425  -0.304131
     61       0.000018  -0.000507  -0.633711
     62       0.000122   0.000399   0.708515
     63      -0.000048  -0.000373   0.000091
     64      -0.000316   0.000183  -0.000027
     65      -0.000019  -0.000108   0.000024
     66      -0.001009   0.000897  -0.000182
     67       0.002802  -0.002068   0.000320
     68       0.001090  -0.000802   0.000142
     69      -0.000414   0.004368  -0.001167
     70       0.000359  -0.001801   0.000394
     71       0.000521   0.002601  -0.000578
     72       0.001509   0.000879  -0.000299
     73       0.001993   0.000751  -0.000250
     74      -0.000112  -0.000127   0.000096


-----------
IR SPECTRUM
-----------

 Mode   freq       eps      Int      T**2         TX        TY        TZ
       cm**-1   L/(mol*cm) km/mol    a.u.
----------------------------------------------------------------------------
  6:     26.81   0.002821   14.26  0.032835  ( 0.159374 -0.013498  0.085162)
  7:     43.81   0.000868    4.39  0.006181  (-0.011133  0.007665  0.077447)
  8:     56.98   0.002134   10.79  0.011688  ( 0.095648 -0.024276 -0.044156)
  9:     80.04   0.002282   11.53  0.008897  ( 0.069327  0.049568  0.040416)
 10:     82.20   0.000759    3.84  0.002883  (-0.050694 -0.008745  0.015398)
 11:    135.76   0.007959   40.22  0.018296  (-0.036301  0.091600 -0.092667)
 12:    157.61   0.002970   15.01  0.005880  (-0.044464 -0.029592 -0.055019)
 13:    249.29   0.007676   38.79  0.009609  ( 0.077018 -0.057555 -0.019106)
 14:    263.50   0.003391   17.13  0.004016  ( 0.058891  0.022848  0.005033)
 15:    276.97   0.004839   24.45  0.005452  (-0.035984  0.027381  0.058369)
 16:    311.02   0.003808   19.24  0.003820  ( 0.001752  0.036637  0.049751)
 17:    331.45   0.002897   14.64  0.002727  (-0.024958  0.007047 -0.045327)
 18:    345.61   0.000725    3.66  0.000655  (-0.012312  0.022427 -0.000158)
 19:    406.83   0.008470   42.81  0.006497  (-0.066240  0.033127 -0.031815)
 20:    442.15   0.004748   23.99  0.003351  ( 0.044164 -0.019394  0.032008)
 21:    452.61   0.020175  101.96  0.013910  ( 0.106448 -0.049893  0.009468)
 22:    519.86   0.005612   28.36  0.003369  (-0.005715 -0.057528  0.005160)
 23:    551.08   0.005337   26.97  0.003022  (-0.006904 -0.054539 -0.000244)
 24:    570.90   0.001558    7.87  0.000852  (-0.025306  0.014259 -0.002827)
 25:    582.27   0.006986   35.30  0.003744  ( 0.014942  0.045385 -0.038223)
 26:    610.87   0.006149   31.07  0.003141  (-0.021088  0.035777  0.037636)
 27:    679.17   0.021116  106.71  0.009702  (-0.038674 -0.035601  0.083302)
 28:    712.98   0.001501    7.58  0.000657  ( 0.009839 -0.016119 -0.017327)
 29:    728.75   0.001763    8.91  0.000755  (-0.023864 -0.005041  0.012652)
 30:    784.18   0.002018   10.20  0.000803  ( 0.004699 -0.001420  0.027908)
 31:    877.15   0.001961    9.91  0.000698  ( 0.010856 -0.023441 -0.005505)
 32:    880.33   0.001651    8.34  0.000585  ( 0.013547 -0.013010 -0.015248)
 33:    906.64   0.000929    4.69  0.000320  ( 0.016630 -0.004196  0.005056)
 34:    912.75   0.003008   15.20  0.001028  (-0.016353 -0.003995 -0.027296)
 35:    981.24   0.001159    5.86  0.000369  ( 0.017358 -0.002938 -0.007652)
 36:   1054.94   0.000531    2.68  0.000157  ( 0.008821  0.006953 -0.005554)
 37:   1057.01   0.004706   23.78  0.001389  ( 0.032618 -0.015265  0.009608)
 38:   1075.58   0.002580   13.04  0.000748  (-0.025328 -0.010180 -0.001822)
 39:   1120.52   0.000452    2.28  0.000126  ( 0.009374 -0.001282 -0.006025)
 40:   1139.89   0.011823   59.75  0.003237  (-0.036335  0.040592 -0.016394)
 41:   1158.88   0.002874   14.53  0.000774  ( 0.022770 -0.001831  0.015880)
 42:   1191.00   0.000502    2.54  0.000131  (-0.008325 -0.007842  0.000812)
 43:   1279.61   0.002424   12.25  0.000591  ( 0.015753 -0.007443  0.016958)
 44:   1280.80   0.023812  120.34  0.005802  ( 0.036178  0.011959  0.065953)
 45:   1301.67   0.013267   67.05  0.003181  (-0.048031  0.019530 -0.022186)
 46:   1306.83   0.067793  342.60  0.016189  ( 0.026586  0.044035  0.116373)
 47:   1321.92   0.001788    9.04  0.000422  (-0.002934  0.017152  0.010920)
 48:   1335.59   0.003509   17.73  0.000820  ( 0.023145  0.001058  0.016826)
 49:   1403.08   0.002297   11.61  0.000511  (-0.019364  0.008766  0.007683)
 50:   1415.56   0.021991  111.13  0.004848  ( 0.017661  0.044174  0.050840)
 51:   1421.74   0.000399    2.01  0.000087  ( 0.009000 -0.001941 -0.001643)
 52:   1471.86   0.004464   22.56  0.000947  ( 0.011752 -0.018030 -0.021986)
 53:   1475.04   0.003404   17.20  0.000720  ( 0.023899  0.009471 -0.007702)
 54:   1505.07   0.002715   13.72  0.000563  ( 0.003950 -0.018759  0.013982)
 55:   1542.21   0.027918  141.09  0.005649  ( 0.054329 -0.024715 -0.045679)
 56:   1573.61   0.038949  196.83  0.007724  ( 0.087069 -0.011543  0.003108)
 57:   1601.39   0.042868  216.64  0.008354  ( 0.047958 -0.019926  0.075211)
 58:   1626.30   0.014777   74.68  0.002836  ( 0.016709 -0.049544  0.010085)
 59:   1683.87   0.023979  121.18  0.004444  ( 0.054099 -0.038084  0.008174)
 60:   1736.49   0.052835  267.00  0.009495  ( 0.077579 -0.058204  0.009415)
 61:   1821.43   0.051738  261.46  0.008864  (-0.077587 -0.052724 -0.008032)
 62:   1890.39   0.048171  243.44  0.007952  ( 0.017478  0.044266 -0.075413)
 63:   3028.38   0.170412  861.19  0.017560  (-0.108395  0.051204 -0.056471)
 64:   3103.74   0.001742    8.80  0.000175  (-0.004057 -0.001472 -0.012509)
 65:   3118.27   0.002664   13.46  0.000267  (-0.012983  0.001718 -0.009753)
 66:   3132.94   0.000809    4.09  0.000081  ( 0.008886  0.000254  0.001253)
 67:   3156.51   0.000017    0.09  0.000002  ( 0.000768  0.000410 -0.000972)
 68:   3173.24   0.000277    1.40  0.000027  ( 0.001740  0.004676  0.001539)
 69:   3203.94   0.000134    0.68  0.000013  (-0.001572  0.002006 -0.002565)
 70:   3476.48   0.017508   88.48  0.001572  ( 0.038524  0.004641 -0.008121)
 71:   3556.32   0.020524  103.72  0.001801  ( 0.007319 -0.041167 -0.007259)
 72:   3653.34   0.008858   44.76  0.000757  ( 0.017060  0.021074 -0.004634)
 73:   3665.86   0.013281   67.12  0.001131  (-0.026824  0.019356  0.006032)
 74:   3850.58   0.018067   91.30  0.001464  (-0.003735 -0.011592  0.036275)

* The epsilon (eps) is given for a Dirac delta lineshape.
** The dipole moment derivative (T) already includes vibrational overlap.

The first frequency considered to be a vibration is 6
The total number of vibrations considered is 69


--------------------------
THERMOCHEMISTRY AT 298.15K
--------------------------

Temperature         ... 298.15 K
Pressure            ... 1.00 atm
Total Mass          ... 190.18 AMU

Throughout the following assumptions are being made:
  (1) The electronic state is orbitally nondegenerate
  (2) There are no thermally accessible electronically excited states
  (3) Hindered rotations indicated by low frequency modes are not
      treated as such but are treated as vibrations and this may
      cause some error
  (4) All equations used are the standard statistical mechanics
      equations for an ideal gas
  (5) All vibrations are strictly harmonic

freq.      26.81  E(vib)   ...       0.55 
freq.      43.81  E(vib)   ...       0.53 
freq.      56.98  E(vib)   ...       0.51 
freq.      80.04  E(vib)   ...       0.49 
freq.      82.20  E(vib)   ...       0.48 
freq.     135.76  E(vib)   ...       0.42 
freq.     157.61  E(vib)   ...       0.40 
freq.     249.29  E(vib)   ...       0.31 
freq.     263.50  E(vib)   ...       0.29 
freq.     276.97  E(vib)   ...       0.28 
freq.     311.02  E(vib)   ...       0.26 
freq.     331.45  E(vib)   ...       0.24 
freq.     345.61  E(vib)   ...       0.23 
freq.     406.83  E(vib)   ...       0.19 
freq.     442.15  E(vib)   ...       0.17 
freq.     452.61  E(vib)   ...       0.16 
freq.     519.86  E(vib)   ...       0.13 
freq.     551.08  E(vib)   ...       0.12 
freq.     570.90  E(vib)   ...       0.11 
freq.     582.27  E(vib)   ...       0.11 
freq.     610.87  E(vib)   ...       0.10 
freq.     679.17  E(vib)   ...       0.08 
freq.     712.98  E(vib)   ...       0.07 
freq.     728.75  E(vib)   ...       0.06 
freq.     784.18  E(vib)   ...       0.05 
freq.     877.15  E(vib)   ...       0.04 
freq.     880.33  E(vib)   ...       0.04 
freq.     906.64  E(vib)   ...       0.03 
freq.     912.75  E(vib)   ...       0.03 
freq.     981.24  E(vib)   ...       0.02 
freq.    1054.94  E(vib)   ...       0.02 
freq.    1057.01  E(vib)   ...       0.02 
freq.    1075.58  E(vib)   ...       0.02 
freq.    1120.52  E(vib)   ...       0.01 
freq.    1139.89  E(vib)   ...       0.01 
freq.    1158.88  E(vib)   ...       0.01 
freq.    1191.00  E(vib)   ...       0.01 
freq.    1279.61  E(vib)   ...       0.01 
freq.    1280.80  E(vib)   ...       0.01 
freq.    1301.67  E(vib)   ...       0.01 
freq.    1306.83  E(vib)   ...       0.01 
freq.    1321.92  E(vib)   ...       0.01 
freq.    1335.59  E(vib)   ...       0.01 
freq.    1403.08  E(vib)   ...       0.00 
freq.    1415.56  E(vib)   ...       0.00 
freq.    1421.74  E(vib)   ...       0.00 
freq.    1471.86  E(vib)   ...       0.00 
freq.    1475.04  E(vib)   ...       0.00 
freq.    1505.07  E(vib)   ...       0.00 
freq.    1542.21  E(vib)   ...       0.00 
freq.    1573.61  E(vib)   ...       0.00 
freq.    1601.39  E(vib)   ...       0.00 
freq.    1626.30  E(vib)   ...       0.00 
freq.    1683.87  E(vib)   ...       0.00 
freq.    1736.49  E(vib)   ...       0.00 
freq.    1821.43  E(vib)   ...       0.00 
freq.    1890.39  E(vib)   ...       0.00 
freq.    3028.38  E(vib)   ...       0.00 
freq.    3103.74  E(vib)   ...       0.00 
freq.    3118.27  E(vib)   ...       0.00 
freq.    3132.94  E(vib)   ...       0.00 
freq.    3156.51  E(vib)   ...       0.00 
freq.    3173.24  E(vib)   ...       0.00 
freq.    3203.94  E(vib)   ...       0.00 
freq.    3476.48  E(vib)   ...       0.00 
freq.    3556.32  E(vib)   ...       0.00 
freq.    3653.34  E(vib)   ...       0.00 
freq.    3665.86  E(vib)   ...       0.00 
freq.    3850.58  E(vib)   ...       0.00 

------------
INNER ENERGY
------------

The inner energy is: U= E(el) + E(ZPE) + E(vib) + E(rot) + E(trans)
    E(el)   - is the total energy from the electronic structure calculation
              = E(kin-el) + E(nuc-el) + E(el-el) + E(nuc-nuc)
    E(ZPE)  - the the zero temperature vibrational energy from the frequency calculation
    E(vib)  - the the finite temperature correction to E(ZPE) due to population
              of excited vibrational states
    E(rot)  - is the rotational thermal energy
    E(trans)- is the translational thermal energy

Summary of contributions to the inner energy U:
Electronic energy                ...   -701.33875153 Eh
Zero point energy                ...      0.20930136 Eh     131.34 kcal/mol
Thermal vibrational correction   ...      0.01065478 Eh       6.69 kcal/mol
Thermal rotational correction    ...      0.00141627 Eh       0.89 kcal/mol
Thermal translational correction ...      0.00141627 Eh       0.89 kcal/mol
-----------------------------------------------------------------------
Total thermal energy                   -701.11596285 Eh


Summary of corrections to the electronic energy:
(perhaps to be used in another calculation)
Total thermal correction                  0.01348732 Eh       8.46 kcal/mol
Non-thermal (ZPE) correction              0.20930136 Eh     131.34 kcal/mol
-----------------------------------------------------------------------
Total correction                          0.22278868 Eh     139.80 kcal/mol


--------
ENTHALPY
--------

The enthalpy is H = U + kB*T
                kB is Boltzmann's constant
Total free energy                 ...   -701.11596285 Eh 
Thermal Enthalpy correction       ...      0.00094421 Eh       0.59 kcal/mol
-----------------------------------------------------------------------
Total Enthalpy                    ...   -701.11501864 Eh


Note: Only C1 symmetry has been detected, increase convergence thresholds 
      if your molecule has a higher symmetry. Symmetry factor of 1.0 is   
      used for the rotational entropy correction. 
 

Note: Rotational entropy computed according to Herzberg 
Infrared and Raman Spectra, Chapter V,1, Van Nostrand Reinhold, 1945 
Point Group:  C1, Symmetry Number:   1  
Rotational constants in cm-1:     0.052110     0.013690     0.012502 

Vibrational entropy computed according to the QRRHO of S. Grimme
Chem.Eur.J. 2012 18 9955


-------
ENTROPY
-------

The entropy contributions are T*S = T*(S(el)+S(vib)+S(rot)+S(trans))
     S(el)   - electronic entropy
     S(vib)  - vibrational entropy
     S(rot)  - rotational entropy
     S(trans)- translational entropy
The entropies will be listed as multiplied by the temperature to get
units of energy

Electronic entropy                ...      0.00000000 Eh      0.00 kcal/mol
Vibrational entropy               ...      0.01888976 Eh     11.85 kcal/mol
Rotational entropy                ...      0.01499999 Eh      9.41 kcal/mol
Translational entropy             ...      0.01978162 Eh     12.41 kcal/mol
-----------------------------------------------------------------------
Final entropy term                ...      0.05367137 Eh     33.68 kcal/mol

In case the symmetry of your molecule has not been determined correctly
or in case you have a reason to use a different symmetry number we print 
out the resulting rotational entropy values for sn=1,12 :
 --------------------------------------------------------
|  sn= 1 | S(rot)=       0.01499999 Eh      9.41 kcal/mol|
|  sn= 2 | S(rot)=       0.01434553 Eh      9.00 kcal/mol|
|  sn= 3 | S(rot)=       0.01396270 Eh      8.76 kcal/mol|
|  sn= 4 | S(rot)=       0.01369107 Eh      8.59 kcal/mol|
|  sn= 5 | S(rot)=       0.01348039 Eh      8.46 kcal/mol|
|  sn= 6 | S(rot)=       0.01330824 Eh      8.35 kcal/mol|
|  sn= 7 | S(rot)=       0.01316270 Eh      8.26 kcal/mol|
|  sn= 8 | S(rot)=       0.01303662 Eh      8.18 kcal/mol|
|  sn= 9 | S(rot)=       0.01292541 Eh      8.11 kcal/mol|
|  sn=10 | S(rot)=       0.01282593 Eh      8.05 kcal/mol|
|  sn=11 | S(rot)=       0.01273594 Eh      7.99 kcal/mol|
|  sn=12 | S(rot)=       0.01265379 Eh      7.94 kcal/mol|
 --------------------------------------------------------


-------------------
GIBBS FREE ENERGY
-------------------

The Gibbs free energy is G = H - T*S

Total enthalpy                    ...   -701.11501864 Eh 
Total entropy correction          ...     -0.05367137 Eh    -33.68 kcal/mol
-----------------------------------------------------------------------
Final Gibbs free energy         ...   -701.16869001 Eh

For completeness - the Gibbs free energy minus the electronic energy
G-E(el)                           ...      0.17006153 Eh    106.71 kcal/mol


Timings for individual modules:

Sum of individual times         ...     8711.208 sec (= 145.187 min)
GTO integral calculation        ...       26.154 sec (=   0.436 min)   0.3 %
SCF iterations                  ...     2818.403 sec (=  46.973 min)  32.4 %
SCF Gradient evaluation         ...      559.423 sec (=   9.324 min)   6.4 %
Geometry relaxation             ...        1.743 sec (=   0.029 min)   0.0 %
Analytical frequency calculation...     4803.270 sec (=  80.055 min)  55.1 %
CHELPG charge generation        ...      502.215 sec (=   8.370 min)   5.8 %
                             ****ORCA TERMINATED NORMALLY****
TOTAL RUN TIME: 0 days 2 hours 25 minutes 46 seconds 780 msec
