
Lmod is automatically replacing "intel/2020.1.217" with "gcc/10.3.0".


Due to MODULEPATH changes, the following have been reloaded:
  1) blis/0.8.1     2) flexiblas/3.0.4

The following have been reloaded with a version change:
  1) gcccore/.9.3.0 => gcccore/.10.3.0        3) openmpi/4.0.3 => openmpi/4.1.1
  2) libfabric/1.10.1 => libfabric/1.12.1     4) ucx/1.8.0 => ucx/1.9.0

To execute ORCA, run: 
   ${EBROOTORCA}/orca orca.inp > orca.out

                                 *****************
                                 * O   R   C   A *
                                 *****************

                                            #,                                       
                                            ###                                      
                                            ####                                     
                                            #####                                    
                                            ######                                   
                                           ########,                                 
                                     ,,################,,,,,                         
                               ,,#################################,,                 
                          ,,##########################################,,             
                       ,#########################################, ''#####,          
                    ,#############################################,,   '####,        
                  ,##################################################,,,,####,       
                ,###########''''           ''''###############################       
              ,#####''   ,,,,##########,,,,          '''####'''          '####       
            ,##' ,,,,###########################,,,                        '##       
           ' ,,###''''                  '''############,,,                           
         ,,##''                                '''############,,,,        ,,,,,,###''
      ,#''                                            '''#######################'''  
     '                                                          ''''####''''         
             ,#######,   #######,   ,#######,      ##                                
            ,#'     '#,  ##    ##  ,#'     '#,    #''#        ######   ,####,        
            ##       ##  ##   ,#'  ##            #'  '#       #        #'  '#        
            ##       ##  #######   ##           ,######,      #####,   #    #        
            '#,     ,#'  ##    ##  '#,     ,#' ,#      #,         ##   #,  ,#        
             '#######'   ##     ##  '#######'  #'      '#     #####' # '####'        



                  #######################################################
                  #                        -***-                        #
                  #          Department of theory and spectroscopy      #
                  #    Directorship and core code : Frank Neese         #
                  #        Max Planck Institute fuer Kohlenforschung    #
                  #                Kaiser Wilhelm Platz 1               #
                  #                 D-45470 Muelheim/Ruhr               #
                  #                      Germany                        #
                  #                                                     #
                  #                  All rights reserved                #
                  #                        -***-                        #
                  #######################################################


                         Program Version 5.0.2 -  RELEASE  -


 With contributions from (in alphabetic order):
   Daniel Aravena         : Magnetic Suceptibility
   Michael Atanasov       : Ab Initio Ligand Field Theory (pilot matlab implementation)
   Alexander A. Auer      : GIAO ZORA, VPT2 properties, NMR spectrum
   Ute Becker             : Parallelization
   Giovanni Bistoni       : ED, misc. LED, open-shell LED, HFLD
   Martin Brehm           : Molecular dynamics
   Dmytro Bykov           : SCF Hessian
   Vijay G. Chilkuri      : MRCI spin determinant printing, contributions to CSF-ICE
   Dipayan Datta          : RHF DLPNO-CCSD density
   Achintya Kumar Dutta   : EOM-CC, STEOM-CC
   Dmitry Ganyushin       : Spin-Orbit,Spin-Spin,Magnetic field MRCI
   Miquel Garcia          : C-PCM and meta-GGA Hessian, CC/C-PCM, Gaussian charge scheme
   Yang Guo               : DLPNO-NEVPT2, F12-NEVPT2, CIM, IAO-localization
   Andreas Hansen         : Spin unrestricted coupled pair/coupled cluster methods
   Benjamin Helmich-Paris : MC-RPA, TRAH-SCF, COSX integrals
   Lee Huntington         : MR-EOM, pCC
   Robert Izsak           : Overlap fitted RIJCOSX, COSX-SCS-MP3, EOM
   Marcus Kettner         : VPT2
   Christian Kollmar      : KDIIS, OOCD, Brueckner-CCSD(T), CCSD density, CASPT2, CASPT2-K
   Simone Kossmann        : Meta GGA functionals, TD-DFT gradient, OOMP2, MP2 Hessian
   Martin Krupicka        : Initial AUTO-CI
   Lucas Lang             : DCDCAS
   Marvin Lechner         : AUTO-CI (C++ implementation), FIC-MRCC
   Dagmar Lenk            : GEPOL surface, SMD
   Dimitrios Liakos       : Extrapolation schemes; Compound Job, initial MDCI parallelization
   Dimitrios Manganas     : Further ROCIS development; embedding schemes
   Dimitrios Pantazis     : SARC Basis sets
   Anastasios Papadopoulos: AUTO-CI, single reference methods and gradients
   Taras Petrenko         : DFT Hessian,TD-DFT gradient, ASA, ECA, R-Raman, ABS, FL, XAS/XES, NRVS
   Peter Pinski           : DLPNO-MP2, DLPNO-MP2 Gradient
   Christoph Reimann      : Effective Core Potentials
   Marius Retegan         : Local ZFS, SOC
   Christoph Riplinger    : Optimizer, TS searches, QM/MM, DLPNO-CCSD(T), (RO)-DLPNO pert. Triples
   Tobias Risthaus        : Range-separated hybrids, TD-DFT gradient, RPA, STAB
   Michael Roemelt        : Original ROCIS implementation
   Masaaki Saitow         : Open-shell DLPNO-CCSD energy and density
   Barbara Sandhoefer     : DKH picture change effects
   Avijit Sen             : IP-ROCIS
   Kantharuban Sivalingam : CASSCF convergence, NEVPT2, FIC-MRCI
   Bernardo de Souza      : ESD, SOC TD-DFT
   Georgi Stoychev        : AutoAux, RI-MP2 NMR, DLPNO-MP2 response
   Willem Van den Heuvel  : Paramagnetic NMR
   Boris Wezisla          : Elementary symmetry handling
   Frank Wennmohs         : Technical directorship


 We gratefully acknowledge several colleagues who have allowed us to
 interface, adapt or use parts of their codes:
   Stefan Grimme, W. Hujo, H. Kruse, P. Pracht,  : VdW corrections, initial TS optimization,
                  C. Bannwarth, S. Ehlert          DFT functionals, gCP, sTDA/sTD-DF
   Ed Valeev, F. Pavosevic, A. Kumar             : LibInt (2-el integral package), F12 methods
   Garnet Chan, S. Sharma, J. Yang, R. Olivares  : DMRG
   Ulf Ekstrom                                   : XCFun DFT Library
   Mihaly Kallay                                 : mrcc  (arbitrary order and MRCC methods)
   Jiri Pittner, Ondrej Demel                    : Mk-CCSD
   Frank Weinhold                                : gennbo (NPA and NBO analysis)
   Christopher J. Cramer and Donald G. Truhlar   : smd solvation model
   Lars Goerigk                                  : TD-DFT with DH, B97 family of functionals
   V. Asgeirsson, H. Jonsson                     : NEB implementation
   FAccTs GmbH                                   : IRC, NEB, NEB-TS, DLPNO-Multilevel, CI-OPT
                                                   MM, QMMM, 2- and 3-layer-ONIOM, Crystal-QMMM,
                                                   LR-CPCM, SF, NACMEs, symmetry and pop. for TD-DFT,
                                                   nearIR, NL-DFT gradient (VV10), updates on ESD,
                                                   ML-optimized integration grids
   S Lehtola, MJT Oliveira, MAL Marques          : LibXC Library
   Liviu Ungur et al                             : ANISO software


 Your calculation uses the libint2 library for the computation of 2-el integrals
 For citations please refer to: http://libint.valeyev.net

 Your ORCA version has been built with support for libXC version: 5.1.0
 For citations please refer to: https://tddft.org/programs/libxc/

 This ORCA versions uses:
   CBLAS   interface :  Fast vector & matrix operations
   LAPACKE interface :  Fast linear algebra routines
   SCALAPACK package :  Parallel linear algebra routines
   Shared memory     :  Shared parallel matrices
   BLAS/LAPACK       :  OpenBLAS 0.3.15  USE64BITINT DYNAMIC_ARCH NO_AFFINITY Zen SINGLE_THREADED
        Core in use  :  Zen
   Copyright (c) 2011-2014, The OpenBLAS Project


Your calculation utilizes the atom-pairwise dispersion correction
with the Becke-Johnson damping scheme (D3BJ)
Cite in your paper:
S.Grimme, S.Ehrlich, L.Goerigk, J Comput Chem, (2011), 32, 1456–1465 
S.Grimme, J.Antony, S.Ehrlich and H.Krieg, J.Chem.Phys., 132, (2010), 154104 
   

================================================================================

----- Orbital basis set information -----
Your calculation utilizes the basis: def2-TZVPP
   F. Weigend and R. Ahlrichs, Phys. Chem. Chem. Phys. 7, 3297 (2005).

----- AuxJ basis set information -----
Your calculation utilizes the auxiliary basis: def2/J
   F. Weigend, Phys. Chem. Chem. Phys. 8, 1057 (2006).

================================================================================
                                        WARNINGS
                       Please study these warnings very carefully!
================================================================================


WARNING: Geometry Optimization
  ===> : Switching off AutoStart
         For restart on a previous wavefunction, please use MOREAD

INFO   : the flag for use of the SHARK integral package has been found!

================================================================================
                                       INPUT FILE
================================================================================
NAME = GGG-H_tt_022_OptFreq.inp
|  1> # GGG-H_tt_022 (old 123)
|  2> ! wB97X-D3BJ Opt Freq def2-TZVPP def2/J RIJCOSX VeryTightSCF
|  3> ! PAL8 defgrid3 VeryTightOpt
|  4> 
|  5> %maxcore 4096
|  6> 
|  7> %geom
|  8>   MaxIter 300
|  9>   # MaxStep 0.1
| 10>   Calc_Hess true
| 11>   Recalc_Hess 10
| 12> end
| 13> 
| 14> %chelpg
| 15>   grid 0.1
| 16>   rmax 3.0
| 17> end
| 18> 
| 19> * xyz 1 1 
| 20>  N   -1.058908   +1.901482   +2.941996
| 21>  H   -1.730049   +2.554976   +2.531984
| 22>  C   -0.883668   +1.968251   +4.391598
| 23>  C   -1.751628   +3.036338   +5.044706
| 24>  H   -1.129471   +0.996983   +4.856417
| 25>  H   +0.169668   +2.183547   +4.644091
| 26>  O   -1.749415   +3.258902   +6.229024
| 27>  C   -0.376707   +1.045454   +2.172175
| 28>  C   -0.639978   +1.131025   +0.644858
| 29>  O   +0.437728   +0.229149   +2.657035
| 30>  N   +0.000000   +0.000000   +0.000000
| 31>  H   -0.193675   +2.061167   +0.256117
| 32>  H   -1.719202   +1.141311   +0.424497
| 33>  H   -0.467235   -0.899918   +0.108233
| 34>  C   +1.368622   +0.000000   +0.000000
| 35>  C   +2.048156   -1.348445   +0.288753
| 36>  O   +2.061123   +1.009981   +0.000000
| 37>  H   +2.903426   -1.536130   -0.376247
| 38>  H   +1.375126   -2.218336   +0.309282
| 39>  O   -2.516332   +3.694495   +4.133299
| 40>  H   -3.045825   +4.365619   +4.616402
| 41>  N   +2.548976   -1.104966   +1.695696
| 42>  H   +3.276972   -0.370595   +1.659623
| 43>  H   +1.723077   -0.670809   +2.240835
| 44>  H   +2.929877   -1.942385   +2.159456
| 45> *
| 46> 
| 47>                          ****END OF INPUT****
================================================================================

                       *****************************
                       * Geometry Optimization Run *
                       *****************************

Geometry optimization settings:
Update method            Update   .... BFGS
Choice of coordinates    CoordSys .... Z-matrix Internals
Initial Hessian          InHess   .... Almoef's Model

Convergence Tolerances:
Energy Change            TolE     ....  2.0000e-07 Eh
Max. Gradient            TolMAXG  ....  3.0000e-05 Eh/bohr
RMS Gradient             TolRMSG  ....  8.0000e-06 Eh/bohr
Max. Displacement        TolMAXD  ....  2.0000e-04 bohr
RMS Displacement         TolRMSD  ....  1.0000e-04 bohr
Strict Convergence                ....  False
------------------------------------------------------------------------------
                        ORCA OPTIMIZATION COORDINATE SETUP
------------------------------------------------------------------------------

The optimization will be done in new redundant internal coordinates
Making redundant internal coordinates   ...  (new redundants) done
Evaluating the initial hessian          ...  (Is done on the fly) done
Evaluating the coordinates              ...  done
Calculating the B-matrix                .... done
Calculating the G-matrix                .... done
Diagonalizing the G-matrix              .... done
Small eigenvalue found = 3.924e-03
Small eigenvalue found = 1.390e-02
Small eigenvalue found = 1.877e-02
Small eigenvalue found = 2.588e-02
The first mode is                       ....   44
The number of degrees of freedom        ....   69

    -----------------------------------------------------------------
                    Redundant Internal Coordinates


    -----------------------------------------------------------------
         Definition                    Initial Value    d2E/dq (diagonal element)
    -----------------------------------------------------------------
      1. B(H   1,N   0)                  1.0225         0.000000   
      2. B(C   2,N   0)                  1.4617         0.000000   
      3. B(C   3,C   2)                  1.5234         0.000000   
      4. B(H   4,C   2)                  1.1045         0.000000   
      5. B(H   5,C   2)                  1.1044         0.000000   
      6. B(O   6,C   3)                  1.2051         0.000000   
      7. B(C   7,N   0)                  1.3382         0.000000   
      8. B(C   8,C   7)                  1.5522         0.000000   
      9. B(O   9,C   7)                  1.2509         0.000000   
     10. B(N  10,C   8)                  1.4507         0.000000   
     11. B(H  11,C   8)                  1.1025         0.000000   
     12. B(H  12,C   8)                  1.1015         0.000000   
     13. B(H  13,N  10)                  1.0197         0.000000   
     14. B(C  14,N  10)                  1.3686         0.000000   
     15. B(C  15,C  14)                  1.5374         0.000000   
     16. B(O  16,C  14)                  1.2246         0.000000   
     17. B(H  17,C  15)                  1.0995         0.000000   
     18. B(H  18,C  15)                  1.1000         0.000000   
     19. B(O  19,C   3)                  1.3596         0.000000   
     20. B(H  20,O  19)                  0.9819         0.000000   
     21. B(N  21,C  15)                  1.5131         0.000000   
     22. B(H  22,N  21)                  1.0347         0.000000   
     23. B(H  23,N  21)                  1.0806         0.000000   
     24. B(H  24,N  21)                  1.0303         0.000000   
     25. A(H   1,N   0,C   2)          116.5613         0.000000   
     26. A(C   2,N   0,C   7)          122.5891         0.000000   
     27. A(H   1,N   0,C   7)          120.8467         0.000000   
     28. A(C   3,C   2,H   5)          107.9825         0.000000   
     29. A(C   3,C   2,H   4)          108.0195         0.000000   
     30. A(N   0,C   2,H   4)          110.5194         0.000000   
     31. A(N   0,C   2,C   3)          112.8859         0.000000   
     32. A(N   0,C   2,H   5)          110.4871         0.000000   
     33. A(H   4,C   2,H   5)          106.7077         0.000000   
     34. A(O   6,C   3,O  19)          124.7801         0.000000   
     35. A(C   2,C   3,O  19)          111.8673         0.000000   
     36. A(C   2,C   3,O   6)          123.3526         0.000000   
     37. A(C   8,C   7,O   9)          121.8570         0.000000   
     38. A(N   0,C   7,O   9)          121.7608         0.000000   
     39. A(N   0,C   7,C   8)          116.3791         0.000000   
     40. A(C   7,C   8,H  11)          108.9535         0.000000   
     41. A(C   7,C   8,N  10)          108.6373         0.000000   
     42. A(H  11,C   8,H  12)          108.5540         0.000000   
     43. A(N  10,C   8,H  12)          110.5217         0.000000   
     44. A(C   7,C   8,H  12)          111.3172         0.000000   
     45. A(N  10,C   8,H  11)          108.8103         0.000000   
     46. A(H  13,N  10,C  14)          117.2703         0.000000   
     47. A(C   8,N  10,C  14)          116.1767         0.000000   
     48. A(C   8,N  10,H  13)          116.0215         0.000000   
     49. A(C  15,C  14,O  16)          118.2584         0.000000   
     50. A(N  10,C  14,O  16)          124.4368         0.000000   
     51. A(N  10,C  14,C  15)          116.2326         0.000000   
     52. A(H  17,C  15,H  18)          110.6227         0.000000   
     53. A(C  14,C  15,H  18)          115.2570         0.000000   
     54. A(C  14,C  15,H  17)          112.3306         0.000000   
     55. A(H  18,C  15,N  21)          108.2035         0.000000   
     56. A(H  17,C  15,N  21)          109.4129         0.000000   
     57. A(C  14,C  15,N  21)          100.3584         0.000000   
     58. A(C   3,O  19,H  20)          107.7184         0.000000   
     59. A(H  23,N  21,H  24)          112.4604         0.000000   
     60. A(H  22,N  21,H  24)          109.4187         0.000000   
     61. A(C  15,N  21,H  24)          114.2127         0.000000   
     62. A(H  22,N  21,H  23)          105.6744         0.000000   
     63. A(C  15,N  21,H  23)          106.3046         0.000000   
     64. A(C  15,N  21,H  22)          108.3405         0.000000   
     65. D(H   4,C   2,N   0,C   7)    -59.8970         0.000000   
     66. D(H   5,C   2,N   0,C   7)     57.9771         0.000000   
     67. D(H   5,C   2,N   0,H   1)   -121.4044         0.000000   
     68. D(H   4,C   2,N   0,H   1)    120.7215         0.000000   
     69. D(C   3,C   2,N   0,H   1)     -0.3769         0.000000   
     70. D(C   3,C   2,N   0,C   7)    179.0046         0.000000   
     71. D(O   6,C   3,C   2,H   4)     58.0062         0.000000   
     72. D(O  19,C   3,C   2,H   5)    122.9681         0.000000   
     73. D(O  19,C   3,C   2,H   4)   -121.9806         0.000000   
     74. D(O   6,C   3,C   2,H   5)    -57.0451         0.000000   
     75. D(O  19,C   3,C   2,N   0)      0.5273         0.000000   
     76. D(O   6,C   3,C   2,N   0)   -179.4859         0.000000   
     77. D(O   9,C   7,N   0,H   1)   -179.2246         0.000000   
     78. D(C   8,C   7,N   0,C   2)   -177.9573         0.000000   
     79. D(C   8,C   7,N   0,H   1)      1.3983         0.000000   
     80. D(O   9,C   7,N   0,C   2)      1.4198         0.000000   
     81. D(H  12,C   8,C   7,O   9)    132.0194         0.000000   
     82. D(H  12,C   8,C   7,N   0)    -48.6042         0.000000   
     83. D(H  11,C   8,C   7,O   9)   -108.3002         0.000000   
     84. D(N  10,C   8,C   7,O   9)     10.0988         0.000000   
     85. D(N  10,C   8,C   7,N   0)   -170.5247         0.000000   
     86. D(H  11,C   8,C   7,N   0)     71.0762         0.000000   
     87. D(C  14,N  10,C   8,H  12)    169.0180         0.000000   
     88. D(C  14,N  10,C   8,H  11)     49.9117         0.000000   
     89. D(C  14,N  10,C   8,C   7)    -68.5778         0.000000   
     90. D(H  13,N  10,C   8,H  12)    -47.0692         0.000000   
     91. D(H  13,N  10,C   8,H  11)   -166.1755         0.000000   
     92. D(H  13,N  10,C   8,C   7)     75.3350         0.000000   
     93. D(O  16,C  14,N  10,C   8)    -29.6898         0.000000   
     94. D(C  15,C  14,N  10,H  13)     -5.2286         0.000000   
     95. D(C  15,C  14,N  10,C   8)    138.2236         0.000000   
     96. D(O  16,C  14,N  10,H  13)   -173.1420         0.000000   
     97. D(N  21,C  15,C  14,O  16)     62.1328         0.000000   
     98. D(N  21,C  15,C  14,N  10)   -106.5605         0.000000   
     99. D(H  18,C  15,C  14,O  16)    178.0689         0.000000   
    100. D(H  18,C  15,C  14,N  10)      9.3756         0.000000   
    101. D(H  17,C  15,C  14,O  16)    -53.9936         0.000000   
    102. D(H  17,C  15,C  14,N  10)    137.3132         0.000000   
    103. D(H  20,O  19,C   3,O   6)      0.1547         0.000000   
    104. D(H  20,O  19,C   3,C   2)   -179.8587         0.000000   
    105. D(H  24,N  21,C  15,H  18)     50.3287         0.000000   
    106. D(H  24,N  21,C  15,H  17)    -70.2691         0.000000   
    107. D(H  24,N  21,C  15,C  14)    171.4404         0.000000   
    108. D(H  23,N  21,C  15,H  18)    -74.2811         0.000000   
    109. D(H  23,N  21,C  15,H  17)    165.1211         0.000000   
    110. D(H  23,N  21,C  15,C  14)     46.8306         0.000000   
    111. D(H  22,N  21,C  15,H  18)    172.5451         0.000000   
    112. D(H  22,N  21,C  15,H  17)     51.9473         0.000000   
    113. D(H  22,N  21,C  15,C  14)    -66.3433         0.000000   
    -----------------------------------------------------------------

Number of atoms                         .... 25
Number of degrees of freedom            .... 113

         *************************************************************
         *                GEOMETRY OPTIMIZATION CYCLE   1            *
         *************************************************************
---------------------------------
CARTESIAN COORDINATES (ANGSTROEM)
---------------------------------
  N     -1.058908    1.901482    2.941996
  H     -1.730049    2.554976    2.531984
  C     -0.883668    1.968251    4.391598
  C     -1.751628    3.036338    5.044706
  H     -1.129471    0.996983    4.856417
  H      0.169668    2.183547    4.644091
  O     -1.749415    3.258902    6.229024
  C     -0.376707    1.045454    2.172175
  C     -0.639978    1.131025    0.644858
  O      0.437728    0.229149    2.657035
  N      0.000000    0.000000    0.000000
  H     -0.193675    2.061167    0.256117
  H     -1.719202    1.141311    0.424497
  H     -0.467235   -0.899918    0.108233
  C      1.368622    0.000000    0.000000
  C      2.048156   -1.348445    0.288753
  O      2.061123    1.009981    0.000000
  H      2.903426   -1.536130   -0.376247
  H      1.375126   -2.218336    0.309282
  O     -2.516332    3.694495    4.133299
  H     -3.045825    4.365619    4.616402
  N      2.548976   -1.104966    1.695696
  H      3.276972   -0.370595    1.659623
  H      1.723077   -0.670809    2.240835
  H      2.929877   -1.942385    2.159456

----------------------------
CARTESIAN COORDINATES (A.U.)
----------------------------
  NO LB      ZA    FRAG     MASS         X           Y           Z
   0 N     7.0000    0    14.007   -2.001046    3.593280    5.559567
   1 H     1.0000    0     1.008   -3.269319    4.828205    4.784756
   2 C     6.0000    0    12.011   -1.669891    3.719455    8.298918
   3 C     6.0000    0    12.011   -3.310097    5.737847    9.533113
   4 H     1.0000    0     1.008   -2.134391    1.884025    9.177298
   5 H     1.0000    0     1.008    0.320626    4.126306    8.776060
   6 O     8.0000    0    15.999   -3.305915    6.158432   11.771149
   7 C     6.0000    0    12.011   -0.711873    1.975622    4.104816
   8 C     6.0000    0    12.011   -1.209383    2.137328    1.218605
   9 O     8.0000    0    15.999    0.827186    0.433029    5.021068
  10 N     7.0000    0    14.007    0.000000    0.000000    0.000000
  11 H     1.0000    0     1.008   -0.365993    3.895041    0.483991
  12 H     1.0000    0     1.008   -3.248821    2.156765    0.802183
  13 H     1.0000    0     1.008   -0.882946   -1.700599    0.204531
  14 C     6.0000    0    12.011    2.586321    0.000000    0.000000
  15 C     6.0000    0    12.011    3.870454   -2.548192    0.545664
  16 O     8.0000    0    15.999    3.894958    1.908587    0.000000
  17 H     1.0000    0     1.008    5.486680   -2.902865   -0.711004
  18 H     1.0000    0     1.008    2.598612   -4.192048    0.584458
  19 O     8.0000    0    15.999   -4.755178    6.981584    7.810803
  20 H     1.0000    0     1.008   -5.755775    8.249824    8.723736
  21 N     7.0000    0    14.007    4.816867   -2.088083    3.204401
  22 H     1.0000    0     1.008    6.192580   -0.700323    3.136233
  23 H     1.0000    0     1.008    3.256144   -1.267645    4.234564
  24 H     1.0000    0     1.008    5.536665   -3.670576    4.080780

--------------------------------
INTERNAL COORDINATES (ANGSTROEM)
--------------------------------
 N      0   0   0     0.000000000000     0.00000000     0.00000000
 H      1   0   0     1.022543148264     0.00000000     0.00000000
 C      1   2   0     1.461681605332   116.56127296     0.00000000
 C      3   1   2     1.523389136378   112.88587547   359.62314143
 H      3   1   2     1.104462468984   110.51941199   120.72151632
 H      3   1   2     1.104364890587   110.48714881   238.59562364
 O      4   3   1     1.205051350188   123.35263775   180.51406363
 C      1   2   3     1.338210190226   120.84672798   180.60699848
 C      8   1   2     1.552202059647   116.37911577     1.39830744
 O      8   1   2     1.250898653709   121.76082962   180.77541428
 N      9   8   1     1.450734721192   108.63728725   189.47526856
 H      9   8   1     1.102483593100   108.95354393    71.07624883
 H      9   8   1     1.101539474687   111.31720795   311.39580836
 H     11   9   8     1.019742778468   116.02149793    75.33498450
 C     11   9   8     1.368622000000   116.17667921   291.42217938
 C     15  11   9     1.537351186356   116.23258817   138.22356466
 O     15  11   9     1.224589423179   124.43677440   330.31021683
 H     16  15  11     1.099516908522   112.33062732   137.31315551
 H     16  15  11     1.100045986594   115.25698624     9.37563997
 O      4   3   1     1.359634349343   111.86728161     0.52725235
 H     20   4   3     0.981915866576   107.71840949   180.14125688
 N     16  15  11     1.513139551096   100.35835086   253.43954012
 H     22  16  15     1.034688456970   108.34050943   293.65673785
 H     22  16  15     1.080637769177   106.30463986    46.83059536
 H     22  16  15     1.030257002384   114.21267304   171.44036071

---------------------------
INTERNAL COORDINATES (A.U.)
---------------------------
 N      0   0   0     0.000000000000     0.00000000     0.00000000
 H      1   0   0     1.932326510336     0.00000000     0.00000000
 C      1   2   0     2.762177929067   116.56127296     0.00000000
 C      3   1   2     2.878788263144   112.88587547   359.62314143
 H      3   1   2     2.087131591574   110.51941199   120.72151632
 H      3   1   2     2.086947195127   110.48714881   238.59562364
 O      4   3   1     2.277217029167   123.35263775   180.51406363
 C      1   2   3     2.528850769151   120.84672798   180.60699848
 C      8   1   2     2.933236797240   116.37911577     1.39830744
 O      8   1   2     2.363855876800   121.76082962   180.77541428
 N      9   8   1     2.741491316024   108.63728725   189.47526856
 H      9   8   1     2.083392058100   108.95354393    71.07624883
 H      9   8   1     2.081607932861   111.31720795   311.39580836
 H     11   9   8     1.927034578349   116.02149793    75.33498450
 C     11   9   8     2.586320760860   116.17667921   291.42217938
 C     15  11   9     2.905172713872   116.23258817   138.22356466
 O     15  11   9     2.314138636305   124.43677440   330.31021683
 H     16  15  11     2.077785836722   112.33062732   137.31315551
 H     16  15  11     2.078785649382   115.25698624     9.37563997
 O      4   3   1     2.569336562531   111.86728161     0.52725235
 H     20   4   3     1.855552074381   107.71840949   180.14125688
 N     16  15  11     2.859419353975   100.35835086   253.43954012
 H     22  16  15     1.955277817602   108.34050943   293.65673785
 H     22  16  15     2.042109433715   106.30463986    46.83059536
 H     22  16  15     1.946903582061   114.21267304   171.44036071

---------------------
BASIS SET INFORMATION
---------------------
There are 4 groups of distinct atoms

 Group   1 Type N   : 11s6p2d1f contracted to 5s3p2d1f pattern {62111/411/11/1}
 Group   2 Type H   : 5s2p1d contracted to 3s2p1d pattern {311/11/1}
 Group   3 Type C   : 11s6p2d1f contracted to 5s3p2d1f pattern {62111/411/11/1}
 Group   4 Type O   : 11s6p2d1f contracted to 5s3p2d1f pattern {62111/411/11/1}

Atom   0N    basis set group =>   1
Atom   1H    basis set group =>   2
Atom   2C    basis set group =>   3
Atom   3C    basis set group =>   3
Atom   4H    basis set group =>   2
Atom   5H    basis set group =>   2
Atom   6O    basis set group =>   4
Atom   7C    basis set group =>   3
Atom   8C    basis set group =>   3
Atom   9O    basis set group =>   4
Atom  10N    basis set group =>   1
Atom  11H    basis set group =>   2
Atom  12H    basis set group =>   2
Atom  13H    basis set group =>   2
Atom  14C    basis set group =>   3
Atom  15C    basis set group =>   3
Atom  16O    basis set group =>   4
Atom  17H    basis set group =>   2
Atom  18H    basis set group =>   2
Atom  19O    basis set group =>   4
Atom  20H    basis set group =>   2
Atom  21N    basis set group =>   1
Atom  22H    basis set group =>   2
Atom  23H    basis set group =>   2
Atom  24H    basis set group =>   2
---------------------------------
AUXILIARY/J BASIS SET INFORMATION
---------------------------------
There are 4 groups of distinct atoms

 Group   1 Type N   : 12s5p4d2f1g contracted to 6s4p3d1f1g pattern {711111/2111/211/2/1}
 Group   2 Type H   : 5s2p1d contracted to 3s1p1d pattern {311/2/1}
 Group   3 Type C   : 12s5p4d2f1g contracted to 6s4p3d1f1g pattern {711111/2111/211/2/1}
 Group   4 Type O   : 12s5p4d2f1g contracted to 6s4p3d1f1g pattern {711111/2111/211/2/1}

Atom   0N    basis set group =>   1
Atom   1H    basis set group =>   2
Atom   2C    basis set group =>   3
Atom   3C    basis set group =>   3
Atom   4H    basis set group =>   2
Atom   5H    basis set group =>   2
Atom   6O    basis set group =>   4
Atom   7C    basis set group =>   3
Atom   8C    basis set group =>   3
Atom   9O    basis set group =>   4
Atom  10N    basis set group =>   1
Atom  11H    basis set group =>   2
Atom  12H    basis set group =>   2
Atom  13H    basis set group =>   2
Atom  14C    basis set group =>   3
Atom  15C    basis set group =>   3
Atom  16O    basis set group =>   4
Atom  17H    basis set group =>   2
Atom  18H    basis set group =>   2
Atom  19O    basis set group =>   4
Atom  20H    basis set group =>   2
Atom  21N    basis set group =>   1
Atom  22H    basis set group =>   2
Atom  23H    basis set group =>   2
Atom  24H    basis set group =>   2


           ************************************************************
           *        Program running with 8 parallel MPI-processes     *
           *              working on a common directory               *
           ************************************************************
------------------------------------------------------------------------------
                           ORCA GTO INTEGRAL CALCULATION
                           -- RI-GTO INTEGRALS CHOSEN --
------------------------------------------------------------------------------
------------------------------------------------------------------------------
                   ___                                                        
                  /   \      - P O W E R E D   B Y -                         
                 /     \                                                     
                 |  |  |   _    _      __       _____    __    __             
                 |  |  |  | |  | |    /  \     |  _  \  |  |  /  |          
                  \  \/   | |  | |   /    \    | | | |  |  | /  /          
                 / \  \   | |__| |  /  /\  \   | |_| |  |  |/  /          
                |  |  |   |  __  | /  /__\  \  |    /   |      \           
                |  |  |   | |  | | |   __   |  |    \   |  |\   \          
                \     /   | |  | | |  |  |  |  | |\  \  |  | \   \       
                 \___/    |_|  |_| |__|  |__|  |_| \__\ |__|  \__/        
                                                                              
                      - O R C A' S   B I G   F R I E N D -                    
                                      &                                       
                       - I N T E G R A L  F E E D E R -                       
                                                                              
 v1 FN, 2020, v2 2021                                                         
------------------------------------------------------------------------------


Reading SHARK input file GGG-H_tt_022_OptFreq.SHARKINP.tmp ... ok
----------------------
SHARK INTEGRAL PACKAGE
----------------------

Number of atoms                             ...     25
Number of basis functions                   ...    571
Number of shells                            ...    215
Maximum angular momentum                    ...      3
Integral batch strategy                     ... SHARK/LIBINT Hybrid
RI-J (if used) integral strategy            ... SPLIT-RIJ (Revised 2003 algorithm where possible)
Printlevel                                  ...      1
Contraction scheme used                     ... SEGMENTED contraction
Coulomb Range Separation                    ... NOT USED
Exchange Range Separation                   ... Long Range
   Mu parameter                             ...  0.300000
   Scaling (regular/separated)              ...  0.167000  0.833000
Finite Nucleus Model                        ... NOT USED
Auxiliary Coulomb fitting basis             ... AVAILABLE
   # of basis functions in Aux-J            ...    769
   # of shells in Aux-J                     ...    255
   Maximum angular momentum in Aux-J        ...      4
Auxiliary J/K fitting basis                 ... NOT available
Auxiliary Correlation fitting basis         ... NOT available
Auxiliary 'external' fitting basis          ... NOT available
Integral threshold                          ...     1.000000e-12
Primitive cut-off                           ...     1.000000e-14
Primitive pair pre-selection threshold      ...     1.000000e-14

Calculating pre-screening integrals         ... done (  0.0 sec) Dimension = 215
Organizing shell pair data                  ... done (  0.2 sec)
Shell pair information
Total number of shell pairs                 ...     23220
Shell pairs after pre-screening             ...     18444
Total number of primitive shell pairs       ...     63868
Primitive shell pairs kept                  ...     37126
          la=0 lb=0:   4086 shell pairs
          la=1 lb=0:   5207 shell pairs
          la=1 lb=1:   1718 shell pairs
          la=2 lb=0:   2905 shell pairs
          la=2 lb=1:   1909 shell pairs
          la=2 lb=2:    543 shell pairs
          la=3 lb=0:   1003 shell pairs
          la=3 lb=1:    651 shell pairs
          la=3 lb=2:    355 shell pairs
          la=3 lb=3:     67 shell pairs

Calculating one electron integrals          ... done (  0.0 sec)
Calculating RI/J V-Matrix + Cholesky decomp.... done (  0.3 sec)
Calculating Nuclear repulsion               ... done (  0.0 sec) ENN=    834.415546644130 Eh

SHARK setup successfully completed in   1.8 seconds

Maximum memory used throughout the entire GTOINT-calculation: 30.4 MB


           ************************************************************
           *        Program running with 8 parallel MPI-processes     *
           *              working on a common directory               *
           ************************************************************
-------------------------------------------------------------------------------
                                 ORCA SCF
-------------------------------------------------------------------------------

------------
SCF SETTINGS
------------
Hamiltonian:
 Density Functional     Method          .... DFT(GTOs)
 Exchange Functional    Exchange        .... WB97X-V
 Correlation Functional Correlation     .... WB97X-V
 Gradients option       PostSCFGGA      .... off
 Hybrid DFT is turned on
   Fraction HF Exchange ScalHFX         ....  0.167000
   Scaling of DF-GGA-X  ScalDFX         ....  0.000000
   Scaling of DF-GGA-C  ScalDFC         ....  1.000000
   Scaling of DF-LDA-C  ScalLDAC        ....  1.000000
   Perturbative correction              ....  0.000000
   Density functional embedding theory  .... OFF
 Long-range corrected/Screened/Range-Separated Hybrid DFT is turned on
   Amount of maximum screened exact exchange              ....  0.833000
   Range separation parameter mu (erf(mu*r12)/r12)        ....  0.300000
 RI-approximation to the Coulomb term is turned on
   Number of AuxJ basis functions       .... 769
   RIJ-COSX (HFX calculated with COS-X)).... on


General Settings:
 Integral files         IntName         .... GGG-H_tt_022_OptFreq
 Hartree-Fock type      HFTyp           .... RHF
 Total Charge           Charge          ....    1
 Multiplicity           Mult            ....    1
 Number of Electrons    NEL             ....  100
 Basis Dimension        Dim             ....  571
 Nuclear Repulsion      ENuc            ....    834.4155466441 Eh

Convergence Acceleration:
 DIIS                   CNVDIIS         .... on
   Start iteration      DIISMaxIt       ....    12
   Startup error        DIISStart       ....  0.200000
   # of expansion vecs  DIISMaxEq       ....     5
   Bias factor          DIISBfac        ....   1.050
   Max. coefficient     DIISMaxC        ....  10.000
 Trust-Rad. Augm. Hess. CNVTRAH         .... auto
   Auto Start mean grad. ratio tolernc. ....  1.125000
   Auto Start start iteration           ....    20
   Auto Start num. interpolation iter.  ....    10
   Max. Number of Micro iterations      ....    16
   Max. Number of Macro iterations      .... Maxiter - #DIIS iter
   Number of Davidson start vectors     ....     2
   Converg. threshold I  (grad. norm)   ....   2.000e-06
   Converg. threshold II (energy diff.) ....   1.000e-09
   Grad. Scal. Fac. for Micro threshold ....   0.100
   Minimum threshold for Micro iter.    ....   0.010
   NR start threshold (gradient norm)   ....   0.001
   Initial trust radius                 ....   0.400
   Minimum AH scaling param. (alpha)    ....   1.000
   Maximum AH scaling param. (alpha)    .... 1000.000
   Orbital update algorithm             .... Taylor
   White noise on init. David. guess    .... on
   Maximum white noise                  ....   0.010
   Quad. conv. algorithm                .... NR
 SOSCF                  CNVSOSCF        .... on
   Start iteration      SOSCFMaxIt      ....   150
   Startup grad/error   SOSCFStart      ....  0.003300
 Level Shifting         CNVShift        .... on
   Level shift para.    LevelShift      ....    0.2500
   Turn off err/grad.   ShiftErr        ....    0.0010
 Zerner damping         CNVZerner       .... off
 Static damping         CNVDamp         .... on
   Fraction old density DampFac         ....    0.7000
   Max. Damping (<1)    DampMax         ....    0.9800
   Min. Damping (>=0)   DampMin         ....    0.0000
   Turn off err/grad.   DampErr         ....    0.1000
 Fernandez-Rico         CNVRico         .... off

SCF Procedure:
 Maximum # iterations   MaxIter         ....   125
 SCF integral mode      SCFMode         .... Direct
   Integral package                     .... SHARK and LIBINT hybrid scheme
 Reset frequency        DirectResetFreq ....    20
 Integral Threshold     Thresh          ....  1.000e-12 Eh
 Primitive CutOff       TCut            ....  1.000e-14 Eh

Convergence Tolerance:
 Convergence Check Mode ConvCheckMode   .... Total+1el-Energy
 Convergence forced     ConvForced      .... 0
 Energy Change          TolE            ....  1.000e-09 Eh
 1-El. energy change                    ....  1.000e-06 Eh
 Orbital Gradient       TolG            ....  2.000e-06
 Orbital Rotation angle TolX            ....  2.000e-06
 DIIS Error             TolErr          ....  1.000e-08


Diagonalization of the overlap matrix:
Smallest eigenvalue                        ... 1.304e-04
Time for diagonalization                   ...    0.061 sec
Threshold for overlap eigenvalues          ... 1.000e-08
Number of eigenvalues below threshold      ... 0
Time for construction of square roots      ...    0.219 sec
Total time needed                          ...    0.302 sec

Time for model grid setup =    0.377 sec

------------------------------
INITIAL GUESS: MODEL POTENTIAL
------------------------------
Loading Hartree-Fock densities                     ... done
Calculating cut-offs                               ... done
Initializing the effective Hamiltonian             ... done
Setting up the integral package (SHARK)            ... done
Starting the Coulomb interaction                   ... done (   0.4 sec)
Reading the grid                                   ... done
Mapping shells                                     ... done
Starting the XC term evaluation                    ... done (   0.2 sec)
  promolecular density results
     # of electrons  =    100.993722281
     EX              =    -58.966902018
     EC              =     -4.266326755
     EX+EC           =    -63.233228774
Transforming the Hamiltonian                       ... done (   0.0 sec)
Diagonalizing the Hamiltonian                      ... done (   0.0 sec)
Back transforming the eigenvectors                 ... done (   0.0 sec)
Now organizing SCF variables                       ... done
                      ------------------
                      INITIAL GUESS DONE (   1.1 sec)
                      ------------------
-------------------
DFT GRID GENERATION
-------------------

General Integration Accuracy     IntAcc      ... 4.959
Radial Grid Type                 RadialGrid  ... OptM3 with GC (2021)
Angular Grid (max. ang.)         AngularGrid ... 6 (Lebedev-590)
Angular grid pruning method      GridPruning ... 4 (adaptive)
Weight generation scheme         WeightScheme... Becke
Basis function cutoff            BFCut       ... 1.0000e-12
Integration weight cutoff        WCut        ... 1.0000e-14
Angular grids for H and He will be reduced by one unit
Partially contracted basis set               ... off
Rotationally invariant grid construction     ... off

Total number of grid points                  ...   289469
Total number of batches                      ...     4536
Average number of points per batch           ...       63
Average number of grid points per atom       ...    11579
Time for grid setup =    3.367 sec

--------------------
COSX GRID GENERATION
--------------------

GRIDX 1
-------
General Integration Accuracy     IntAcc      ... 4.020
Radial Grid Type                 RadialGrid  ... OptM3 with GC (2021)
Angular Grid (max. ang.)         AngularGrid ... 2 (Lebedev-110)
Angular grid pruning method      GridPruning ... 4 (adaptive)
Weight generation scheme         WeightScheme... Becke
Basis function cutoff            BFCut       ... 1.0000e-12
Integration weight cutoff        WCut        ... 1.0000e-14
Angular grids for H and He will be reduced by one unit
Partially contracted basis set               ... on
Rotationally invariant grid construction     ... off

Total number of grid points                  ...    32301
Total number of batches                      ...      518
Average number of points per batch           ...       62
Average number of grid points per atom       ...     1292
UseSFitting                                  ... on

GRIDX 2
-------
General Integration Accuracy     IntAcc      ... 4.338
Radial Grid Type                 RadialGrid  ... OptM3 with GC (2021)
Angular Grid (max. ang.)         AngularGrid ... 3 (Lebedev-194)
Angular grid pruning method      GridPruning ... 4 (adaptive)
Weight generation scheme         WeightScheme... Becke
Basis function cutoff            BFCut       ... 1.0000e-12
Integration weight cutoff        WCut        ... 1.0000e-14
Angular grids for H and He will be reduced by one unit
Partially contracted basis set               ... on
Rotationally invariant grid construction     ... off

Total number of grid points                  ...    70840
Total number of batches                      ...     1122
Average number of points per batch           ...       63
Average number of grid points per atom       ...     2834
UseSFitting                                  ... on

GRIDX 3
-------
General Integration Accuracy     IntAcc      ... 4.871
Radial Grid Type                 RadialGrid  ... OptM3 with GC (2021)
Angular Grid (max. ang.)         AngularGrid ... 4 (Lebedev-302)
Angular grid pruning method      GridPruning ... 4 (adaptive)
Weight generation scheme         WeightScheme... Becke
Basis function cutoff            BFCut       ... 1.0000e-12
Integration weight cutoff        WCut        ... 1.0000e-14
Angular grids for H and He will be reduced by one unit
Partially contracted basis set               ... on
Rotationally invariant grid construction     ... off

Total number of grid points                  ...   134231
Total number of batches                      ...     2110
Average number of points per batch           ...       63
Average number of grid points per atom       ...     5369
UseSFitting                                  ... on

Time for X-Grid setup             =    2.441 sec

--------------
SCF ITERATIONS
--------------
ITER       Energy         Delta-E        Max-DP      RMS-DP      [F,P]     Damp
               ***  Starting incremental Fock matrix formation  ***
  0   -701.1583485883   0.000000000000 0.03369029  0.00045277  0.3436604 0.7000
  1   -701.2070995289  -0.048750940585 0.03659147  0.00040702  0.2341653 0.7000
                               ***Turning on DIIS***
  2   -701.2349898763  -0.027890347477 0.03413741  0.00031551  0.1631753 0.7000
  3   -701.2533109163  -0.018321039922 0.03135027  0.00025284  0.1124880 0.7000
  4   -701.2661925734  -0.012881657168 0.08322208  0.00066717  0.0774251 0.0000
                      *** Initiating the SOSCF procedure ***
                           *** Shutting down DIIS ***
                      *** Re-Reading the Fockian *** 
                      *** Removing any level shift *** 
ITER      Energy       Delta-E        Grad      Rot      Max-DP    RMS-DP
  5   -701.29730215  -0.0311095786  0.001931  0.001931  0.008250  0.000069
               *** Restarting incremental Fock matrix formation ***
  6   -701.29743641  -0.0001342535  0.000882  0.002010  0.005265  0.000042
  7   -701.29747498  -0.0000385699  0.000688  0.002030  0.003513  0.000031
  8   -701.29748394  -0.0000089676  0.000397  0.000573  0.000770  0.000010
  9   -701.29748646  -0.0000025127  0.000104  0.000080  0.000580  0.000005
 10   -701.29748668  -0.0000002222  0.000032  0.000083  0.000204  0.000002
 11   -701.29748683  -0.0000001549  0.000011  0.000033  0.000017  0.000000
 12   -701.29748684  -0.0000000045  0.000005  0.000013  0.000021  0.000000
 13   -701.29748684  -0.0000000020  0.000003  0.000011  0.000012  0.000000
 14   -701.29748684  -0.0000000002  0.000002  0.000003  0.000004  0.000000
                  ***Gradient check signals convergence***
              ***Rediagonalizing the Fockian in SOSCF/NRSCF***

               *****************************************************
               *                     SUCCESS                       *
               *           SCF CONVERGED AFTER  15 CYCLES          *
               *****************************************************

Old exchange energy                            =    -27.830813438 Eh
New exchange energy                            =    -27.830811583 Eh
Exchange energy change after final integration =      0.000001855 Eh
Total energy after final integration           =   -701.297484985 Eh
Final COS-X integration done in                =    30.148 sec

----------------
TOTAL SCF ENERGY
----------------

Total Energy       :         -701.29748498 Eh          -19083.27474 eV

Components:
Nuclear Repulsion  :          834.41554664 Eh           22705.60135 eV
Electronic Energy  :        -1535.71303163 Eh          -41788.87610 eV
One Electron Energy:        -2597.46092399 Eh          -70680.50507 eV
Two Electron Energy:         1061.74789236 Eh           28891.62897 eV
Max COSX asymmetry :            0.00000103 Eh               0.00003 eV

Virial components:
Potential Energy   :        -1399.25511449 Eh          -38075.66739 eV
Kinetic Energy     :          697.95762951 Eh           18992.39265 eV
Virial Ratio       :            2.00478518


DFT components:
N(Alpha)           :       49.999998773082 electrons
N(Beta)            :       49.999998773082 electrons
N(Total)           :       99.999997546165 electrons
E(X)               :      -60.044853838907 Eh       
E(C)               :       -4.264400338110 Eh       
E(XC)              :      -64.309254177017 Eh       
DFET-embed. en.    :        0.000000000000 Eh       

---------------
SCF CONVERGENCE
---------------

  Last Energy change         ...    7.3101e-11  Tolerance :   1.0000e-09
  Last MAX-Density change    ...    1.6653e-15  Tolerance :   1.0000e-08
  Last RMS-Density change    ...    1.2248e-17  Tolerance :   1.0000e-09
  Last Orbital Gradient      ...    3.4800e-07  Tolerance :   2.0000e-06
  Last Orbital Rotation      ...    6.3943e-07  Tolerance :   2.0000e-06

             **** THE GBW FILE WAS UPDATED (GGG-H_tt_022_OptFreq.gbw) ****
             **** DENSITY GGG-H_tt_022_OptFreq.scfp WAS UPDATED ****
             **** ENERGY FILE WAS UPDATED (GGG-H_tt_022_OptFreq.en.tmp) ****
             **** THE GBW FILE WAS UPDATED (GGG-H_tt_022_OptFreq.gbw) ****
             **** DENSITY GGG-H_tt_022_OptFreq.scfp WAS UPDATED ****
----------------
ORBITAL ENERGIES
----------------

  NO   OCC          E(Eh)            E(eV) 
   0   2.0000     -19.389074      -527.6035 
   1   2.0000     -19.352558      -526.6099 
   2   2.0000     -19.348032      -526.4867 
   3   2.0000     -19.322393      -525.7890 
   4   2.0000     -14.690838      -399.7580 
   5   2.0000     -14.599930      -397.2843 
   6   2.0000     -14.596728      -397.1972 
   7   2.0000     -10.547936      -287.0239 
   8   2.0000     -10.544884      -286.9409 
   9   2.0000     -10.534900      -286.6692 
  10   2.0000     -10.511756      -286.0394 
  11   2.0000     -10.476630      -285.0836 
  12   2.0000     -10.459516      -284.6179 
  13   2.0000      -1.362047       -37.0632 
  14   2.0000      -1.348554       -36.6960 
  15   2.0000      -1.329841       -36.1868 
  16   2.0000      -1.284929       -34.9647 
  17   2.0000      -1.270933       -34.5838 
  18   2.0000      -1.221655       -33.2429 
  19   2.0000      -1.214059       -33.0362 
  20   2.0000      -1.056005       -28.7353 
  21   2.0000      -1.029063       -28.0022 
  22   2.0000      -0.980890       -26.6914 
  23   2.0000      -0.889135       -24.1946 
  24   2.0000      -0.875178       -23.8148 
  25   2.0000      -0.870075       -23.6759 
  26   2.0000      -0.862213       -23.4620 
  27   2.0000      -0.844463       -22.9790 
  28   2.0000      -0.804210       -21.8837 
  29   2.0000      -0.789992       -21.4968 
  30   2.0000      -0.765700       -20.8358 
  31   2.0000      -0.751611       -20.4524 
  32   2.0000      -0.741606       -20.1801 
  33   2.0000      -0.735002       -20.0004 
  34   2.0000      -0.721114       -19.6225 
  35   2.0000      -0.708790       -19.2872 
  36   2.0000      -0.701982       -19.1019 
  37   2.0000      -0.690732       -18.7958 
  38   2.0000      -0.681252       -18.5378 
  39   2.0000      -0.669026       -18.2051 
  40   2.0000      -0.653874       -17.7928 
  41   2.0000      -0.639890       -17.4123 
  42   2.0000      -0.632645       -17.2152 
  43   2.0000      -0.622554       -16.9406 
  44   2.0000      -0.556471       -15.1424 
  45   2.0000      -0.551635       -15.0107 
  46   2.0000      -0.538227       -14.6459 
  47   2.0000      -0.524611       -14.2754 
  48   2.0000      -0.518116       -14.0986 
  49   2.0000      -0.508554       -13.8385 
  50   0.0000      -0.085364        -2.3229 
  51   0.0000      -0.062588        -1.7031 
  52   0.0000      -0.055266        -1.5039 
  53   0.0000      -0.031136        -0.8473 
  54   0.0000      -0.024621        -0.6700 
  55   0.0000      -0.015678        -0.4266 
  56   0.0000      -0.004981        -0.1355 
  57   0.0000       0.009093         0.2474 
  58   0.0000       0.013501         0.3674 
  59   0.0000       0.023408         0.6370 
  60   0.0000       0.038480         1.0471 
  61   0.0000       0.049462         1.3459 
  62   0.0000       0.062944         1.7128 
  63   0.0000       0.071090         1.9345 
  64   0.0000       0.079436         2.1616 
  65   0.0000       0.080177         2.1817 
  66   0.0000       0.091605         2.4927 
  67   0.0000       0.100176         2.7259 
  68   0.0000       0.107932         2.9370 
  69   0.0000       0.119508         3.2520 
  70   0.0000       0.122374         3.3300 
  71   0.0000       0.129726         3.5300 
  72   0.0000       0.145663         3.9637 
  73   0.0000       0.156520         4.2591 
  74   0.0000       0.159861         4.3500 
  75   0.0000       0.171430         4.6648 
  76   0.0000       0.176139         4.7930 
  77   0.0000       0.188272         5.1231 
  78   0.0000       0.205825         5.6008 
  79   0.0000       0.218493         5.9455 
  80   0.0000       0.223560         6.0834 
  81   0.0000       0.226597         6.1660 
  82   0.0000       0.235400         6.4056 
  83   0.0000       0.245182         6.6718 
  84   0.0000       0.253274         6.8919 
  85   0.0000       0.259770         7.0687 
  86   0.0000       0.267896         7.2898 
  87   0.0000       0.279027         7.5927 
  88   0.0000       0.284970         7.7544 
  89   0.0000       0.291131         7.9221 
  90   0.0000       0.308816         8.4033 
  91   0.0000       0.313624         8.5341 
  92   0.0000       0.315362         8.5814 
  93   0.0000       0.325444         8.8558 
  94   0.0000       0.329975         8.9791 
  95   0.0000       0.339334         9.2338 
  96   0.0000       0.341284         9.2868 
  97   0.0000       0.350587         9.5400 
  98   0.0000       0.359509         9.7827 
  99   0.0000       0.361793         9.8449 
 100   0.0000       0.368909        10.0385 
 101   0.0000       0.371087        10.0978 
 102   0.0000       0.376937        10.2570 
 103   0.0000       0.381446        10.3797 
 104   0.0000       0.388607        10.5745 
 105   0.0000       0.397162        10.8073 
 106   0.0000       0.405890        11.0448 
 107   0.0000       0.408762        11.1230 
 108   0.0000       0.412241        11.2176 
 109   0.0000       0.419877        11.4254 
 110   0.0000       0.439044        11.9470 
 111   0.0000       0.440608        11.9895 
 112   0.0000       0.446954        12.1622 
 113   0.0000       0.450426        12.2567 
 114   0.0000       0.467438        12.7196 
 115   0.0000       0.473874        12.8948 
 116   0.0000       0.485259        13.2046 
 117   0.0000       0.499518        13.5926 
 118   0.0000       0.501924        13.6580 
 119   0.0000       0.514697        14.0056 
 120   0.0000       0.522447        14.2165 
 121   0.0000       0.532957        14.5025 
 122   0.0000       0.542961        14.7747 
 123   0.0000       0.562524        15.3071 
 124   0.0000       0.565856        15.3977 
 125   0.0000       0.571656        15.5555 
 126   0.0000       0.591479        16.0950 
 127   0.0000       0.596236        16.2244 
 128   0.0000       0.604099        16.4384 
 129   0.0000       0.615233        16.7413 
 130   0.0000       0.622347        16.9349 
 131   0.0000       0.638893        17.3852 
 132   0.0000       0.647069        17.6076 
 133   0.0000       0.656045        17.8519 
 134   0.0000       0.667418        18.1614 
 135   0.0000       0.676744        18.4151 
 136   0.0000       0.695130        18.9154 
 137   0.0000       0.698553        19.0086 
 138   0.0000       0.708824        19.2881 
 139   0.0000       0.719945        19.5907 
 140   0.0000       0.728893        19.8342 
 141   0.0000       0.747807        20.3489 
 142   0.0000       0.762601        20.7514 
 143   0.0000       0.771063        20.9817 
 144   0.0000       0.784043        21.3349 
 145   0.0000       0.798957        21.7407 
 146   0.0000       0.819871        22.3098 
 147   0.0000       0.828649        22.5487 
 148   0.0000       0.837627        22.7930 
 149   0.0000       0.850882        23.1537 
 150   0.0000       0.858823        23.3698 
 151   0.0000       0.871648        23.7187 
 152   0.0000       0.884127        24.0583 
 153   0.0000       0.887268        24.1438 
 154   0.0000       0.893436        24.3116 
 155   0.0000       0.902276        24.5522 
 156   0.0000       0.910860        24.7858 
 157   0.0000       0.921620        25.0786 
 158   0.0000       0.935988        25.4695 
 159   0.0000       0.939711        25.5708 
 160   0.0000       0.949429        25.8353 
 161   0.0000       0.969857        26.3912 
 162   0.0000       0.978086        26.6151 
 163   0.0000       0.981890        26.7186 
 164   0.0000       0.986551        26.8454 
 165   0.0000       0.999833        27.2068 
 166   0.0000       1.010020        27.4840 
 167   0.0000       1.016060        27.6484 
 168   0.0000       1.023776        27.8584 
 169   0.0000       1.035074        28.1658 
 170   0.0000       1.051981        28.6259 
 171   0.0000       1.065994        29.0072 
 172   0.0000       1.075746        29.2725 
 173   0.0000       1.085517        29.5384 
 174   0.0000       1.093453        29.7544 
 175   0.0000       1.095286        29.8042 
 176   0.0000       1.109583        30.1933 
 177   0.0000       1.113617        30.3031 
 178   0.0000       1.130313        30.7574 
 179   0.0000       1.135079        30.8871 
 180   0.0000       1.164189        31.6792 
 181   0.0000       1.168655        31.8007 
 182   0.0000       1.181004        32.1368 
 183   0.0000       1.189454        32.3667 
 184   0.0000       1.193079        32.4653 
 185   0.0000       1.205486        32.8029 
 186   0.0000       1.214432        33.0464 
 187   0.0000       1.228604        33.4320 
 188   0.0000       1.238886        33.7118 
 189   0.0000       1.255195        34.1556 
 190   0.0000       1.260809        34.3084 
 191   0.0000       1.263777        34.3891 
 192   0.0000       1.283644        34.9297 
 193   0.0000       1.311256        35.6811 
 194   0.0000       1.332056        36.2471 
 195   0.0000       1.346782        36.6478 
 196   0.0000       1.362628        37.0790 
 197   0.0000       1.368693        37.2440 
 198   0.0000       1.374272        37.3958 
 199   0.0000       1.379357        37.5342 
 200   0.0000       1.385266        37.6950 
 201   0.0000       1.393723        37.9251 
 202   0.0000       1.402915        38.1753 
 203   0.0000       1.410864        38.3916 
 204   0.0000       1.426831        38.8261 
 205   0.0000       1.435216        39.0542 
 206   0.0000       1.446646        39.3653 
 207   0.0000       1.451667        39.5019 
 208   0.0000       1.461466        39.7685 
 209   0.0000       1.480403        40.2838 
 210   0.0000       1.487988        40.4902 
 211   0.0000       1.498179        40.7675 
 212   0.0000       1.501197        40.8497 
 213   0.0000       1.528223        41.5851 
 214   0.0000       1.537411        41.8351 
 215   0.0000       1.547844        42.1190 
 216   0.0000       1.553158        42.2636 
 217   0.0000       1.568393        42.6781 
 218   0.0000       1.587190        43.1896 
 219   0.0000       1.596646        43.4469 
 220   0.0000       1.603866        43.6434 
 221   0.0000       1.610513        43.8243 
 222   0.0000       1.636904        44.5424 
 223   0.0000       1.649074        44.8736 
 224   0.0000       1.655372        45.0450 
 225   0.0000       1.665702        45.3261 
 226   0.0000       1.698680        46.2234 
 227   0.0000       1.705143        46.3993 
 228   0.0000       1.709924        46.5294 
 229   0.0000       1.721815        46.8530 
 230   0.0000       1.749044        47.5939 
 231   0.0000       1.781019        48.4640 
 232   0.0000       1.795065        48.8462 
 233   0.0000       1.820821        49.5471 
 234   0.0000       1.842051        50.1247 
 235   0.0000       1.858579        50.5745 
 236   0.0000       1.874114        50.9972 
 237   0.0000       1.879419        51.1416 
 238   0.0000       1.892169        51.4885 
 239   0.0000       1.905900        51.8622 
 240   0.0000       1.918356        52.2011 
 241   0.0000       1.926598        52.4254 
 242   0.0000       1.944747        52.9193 
 243   0.0000       1.972898        53.6853 
 244   0.0000       2.004878        54.5555 
 245   0.0000       2.013006        54.7767 
 246   0.0000       2.027589        55.1735 
 247   0.0000       2.044187        55.6252 
 248   0.0000       2.048019        55.7294 
 249   0.0000       2.079708        56.5917 
 250   0.0000       2.102575        57.2140 
 251   0.0000       2.120745        57.7084 
 252   0.0000       2.142679        58.3053 
 253   0.0000       2.161272        58.8112 
 254   0.0000       2.184465        59.4423 
 255   0.0000       2.188886        59.5626 
 256   0.0000       2.225057        60.5469 
 257   0.0000       2.238343        60.9084 
 258   0.0000       2.257265        61.4233 
 259   0.0000       2.278083        61.9898 
 260   0.0000       2.292579        62.3843 
 261   0.0000       2.308731        62.8238 
 262   0.0000       2.315450        63.0066 
 263   0.0000       2.366284        64.3899 
 264   0.0000       2.366564        64.3975 
 265   0.0000       2.404754        65.4367 
 266   0.0000       2.421008        65.8790 
 267   0.0000       2.432981        66.2048 
 268   0.0000       2.469217        67.1908 
 269   0.0000       2.494315        67.8738 
 270   0.0000       2.497207        67.9525 
 271   0.0000       2.508944        68.2718 
 272   0.0000       2.520929        68.5980 
 273   0.0000       2.533013        68.9268 
 274   0.0000       2.539408        69.1008 
 275   0.0000       2.564861        69.7934 
 276   0.0000       2.590632        70.4947 
 277   0.0000       2.594861        70.6098 
 278   0.0000       2.606879        70.9368 
 279   0.0000       2.617537        71.2268 
 280   0.0000       2.630551        71.5809 
 281   0.0000       2.642595        71.9087 
 282   0.0000       2.649069        72.0848 
 283   0.0000       2.659783        72.3764 
 284   0.0000       2.674274        72.7707 
 285   0.0000       2.699471        73.4563 
 286   0.0000       2.707806        73.6831 
 287   0.0000       2.720035        74.0159 
 288   0.0000       2.725389        74.1616 
 289   0.0000       2.736403        74.4613 
 290   0.0000       2.760062        75.1051 
 291   0.0000       2.778251        75.6001 
 292   0.0000       2.782698        75.7211 
 293   0.0000       2.794764        76.0494 
 294   0.0000       2.807241        76.3889 
 295   0.0000       2.818780        76.7029 
 296   0.0000       2.823650        76.8354 
 297   0.0000       2.826681        76.9179 
 298   0.0000       2.855831        77.7111 
 299   0.0000       2.869064        78.0712 
 300   0.0000       2.879570        78.3571 
 301   0.0000       2.894155        78.7540 
 302   0.0000       2.895803        78.7988 
 303   0.0000       2.908708        79.1500 
 304   0.0000       2.926708        79.6398 
 305   0.0000       2.938378        79.9573 
 306   0.0000       2.944113        80.1134 
 307   0.0000       2.957446        80.4762 
 308   0.0000       2.959706        80.5377 
 309   0.0000       2.975062        80.9556 
 310   0.0000       2.982138        81.1481 
 311   0.0000       2.999670        81.6252 
 312   0.0000       3.010219        81.9122 
 313   0.0000       3.023697        82.2790 
 314   0.0000       3.031461        82.4902 
 315   0.0000       3.053080        83.0785 
 316   0.0000       3.059353        83.2492 
 317   0.0000       3.060511        83.2807 
 318   0.0000       3.074004        83.6479 
 319   0.0000       3.085892        83.9714 
 320   0.0000       3.093351        84.1743 
 321   0.0000       3.098998        84.3280 
 322   0.0000       3.109230        84.6064 
 323   0.0000       3.113801        84.7308 
 324   0.0000       3.132242        85.2326 
 325   0.0000       3.135738        85.3278 
 326   0.0000       3.149302        85.6969 
 327   0.0000       3.166153        86.1554 
 328   0.0000       3.171707        86.3065 
 329   0.0000       3.180748        86.5526 
 330   0.0000       3.183866        86.6374 
 331   0.0000       3.192243        86.8654 
 332   0.0000       3.201779        87.1248 
 333   0.0000       3.212821        87.4253 
 334   0.0000       3.218922        87.5913 
 335   0.0000       3.223634        87.7195 
 336   0.0000       3.241950        88.2180 
 337   0.0000       3.250802        88.4588 
 338   0.0000       3.260981        88.7358 
 339   0.0000       3.270732        89.0011 
 340   0.0000       3.293193        89.6123 
 341   0.0000       3.301935        89.8502 
 342   0.0000       3.305028        89.9344 
 343   0.0000       3.317649        90.2778 
 344   0.0000       3.340265        90.8932 
 345   0.0000       3.352201        91.2180 
 346   0.0000       3.362061        91.4863 
 347   0.0000       3.370903        91.7269 
 348   0.0000       3.374842        91.8341 
 349   0.0000       3.391661        92.2918 
 350   0.0000       3.395274        92.3901 
 351   0.0000       3.407675        92.7276 
 352   0.0000       3.418060        93.0101 
 353   0.0000       3.425023        93.1996 
 354   0.0000       3.434782        93.4652 
 355   0.0000       3.447524        93.8119 
 356   0.0000       3.452637        93.9510 
 357   0.0000       3.462172        94.2105 
 358   0.0000       3.480981        94.7223 
 359   0.0000       3.495068        95.1056 
 360   0.0000       3.501463        95.2797 
 361   0.0000       3.517446        95.7146 
 362   0.0000       3.530505        96.0699 
 363   0.0000       3.546693        96.5104 
 364   0.0000       3.548256        96.5530 
 365   0.0000       3.558082        96.8203 
 366   0.0000       3.565695        97.0275 
 367   0.0000       3.568619        97.1071 
 368   0.0000       3.582380        97.4815 
 369   0.0000       3.590681        97.7074 
 370   0.0000       3.606561        98.1395 
 371   0.0000       3.612894        98.3119 
 372   0.0000       3.623201        98.5923 
 373   0.0000       3.640608        99.0660 
 374   0.0000       3.648899        99.2916 
 375   0.0000       3.667574        99.7998 
 376   0.0000       3.681893       100.1894 
 377   0.0000       3.691133       100.4408 
 378   0.0000       3.702287       100.7443 
 379   0.0000       3.724197       101.3405 
 380   0.0000       3.756980       102.2326 
 381   0.0000       3.777940       102.8030 
 382   0.0000       3.780948       102.8848 
 383   0.0000       3.791593       103.1745 
 384   0.0000       3.793871       103.2365 
 385   0.0000       3.809487       103.6614 
 386   0.0000       3.818763       103.9138 
 387   0.0000       3.847593       104.6983 
 388   0.0000       3.853571       104.8610 
 389   0.0000       3.860791       105.0575 
 390   0.0000       3.884380       105.6994 
 391   0.0000       3.895083       105.9906 
 392   0.0000       3.905487       106.2737 
 393   0.0000       3.915018       106.5331 
 394   0.0000       3.943319       107.3032 
 395   0.0000       3.952932       107.5647 
 396   0.0000       3.956669       107.6664 
 397   0.0000       3.959155       107.7341 
 398   0.0000       3.969936       108.0274 
 399   0.0000       3.994788       108.7037 
 400   0.0000       4.002786       108.9213 
 401   0.0000       4.015614       109.2704 
 402   0.0000       4.023687       109.4901 
 403   0.0000       4.030548       109.6768 
 404   0.0000       4.040256       109.9410 
 405   0.0000       4.061335       110.5145 
 406   0.0000       4.069177       110.7279 
 407   0.0000       4.099796       111.5611 
 408   0.0000       4.107682       111.7757 
 409   0.0000       4.118868       112.0801 
 410   0.0000       4.122469       112.1781 
 411   0.0000       4.128341       112.3379 
 412   0.0000       4.163237       113.2874 
 413   0.0000       4.171301       113.5069 
 414   0.0000       4.179909       113.7411 
 415   0.0000       4.182950       113.8239 
 416   0.0000       4.198449       114.2456 
 417   0.0000       4.203410       114.3806 
 418   0.0000       4.217612       114.7671 
 419   0.0000       4.232592       115.1747 
 420   0.0000       4.240507       115.3901 
 421   0.0000       4.258352       115.8756 
 422   0.0000       4.264811       116.0514 
 423   0.0000       4.277051       116.3845 
 424   0.0000       4.292831       116.8139 
 425   0.0000       4.313675       117.3811 
 426   0.0000       4.319339       117.5352 
 427   0.0000       4.320939       117.5787 
 428   0.0000       4.345781       118.2547 
 429   0.0000       4.392279       119.5200 
 430   0.0000       4.414379       120.1213 
 431   0.0000       4.427932       120.4902 
 432   0.0000       4.461075       121.3920 
 433   0.0000       4.483101       121.9914 
 434   0.0000       4.494000       122.2879 
 435   0.0000       4.503106       122.5358 
 436   0.0000       4.521235       123.0291 
 437   0.0000       4.568111       124.3046 
 438   0.0000       4.575715       124.5115 
 439   0.0000       4.588393       124.8565 
 440   0.0000       4.623084       125.8005 
 441   0.0000       4.644678       126.3881 
 442   0.0000       4.647312       126.4598 
 443   0.0000       4.679105       127.3249 
 444   0.0000       4.684812       127.4802 
 445   0.0000       4.694785       127.7516 
 446   0.0000       4.710037       128.1666 
 447   0.0000       4.728188       128.6605 
 448   0.0000       4.747818       129.1947 
 449   0.0000       4.762713       129.6000 
 450   0.0000       4.794232       130.4577 
 451   0.0000       4.809777       130.8807 
 452   0.0000       4.822083       131.2155 
 453   0.0000       4.829085       131.4061 
 454   0.0000       4.843028       131.7855 
 455   0.0000       4.851737       132.0225 
 456   0.0000       4.866915       132.4355 
 457   0.0000       4.874320       132.6370 
 458   0.0000       4.902299       133.3983 
 459   0.0000       4.920669       133.8982 
 460   0.0000       4.930125       134.1555 
 461   0.0000       4.948679       134.6604 
 462   0.0000       4.973593       135.3384 
 463   0.0000       4.986990       135.7029 
 464   0.0000       5.020333       136.6102 
 465   0.0000       5.047538       137.3505 
 466   0.0000       5.060343       137.6989 
 467   0.0000       5.069362       137.9443 
 468   0.0000       5.094274       138.6222 
 469   0.0000       5.099653       138.7686 
 470   0.0000       5.114349       139.1685 
 471   0.0000       5.137443       139.7969 
 472   0.0000       5.152648       140.2107 
 473   0.0000       5.156355       140.3116 
 474   0.0000       5.158623       140.3733 
 475   0.0000       5.169885       140.6797 
 476   0.0000       5.181214       140.9880 
 477   0.0000       5.202535       141.5682 
 478   0.0000       5.211344       141.8079 
 479   0.0000       5.235167       142.4561 
 480   0.0000       5.240483       142.6008 
 481   0.0000       5.256569       143.0385 
 482   0.0000       5.282456       143.7429 
 483   0.0000       5.305949       144.3822 
 484   0.0000       5.313540       144.5888 
 485   0.0000       5.329066       145.0113 
 486   0.0000       5.352972       145.6618 
 487   0.0000       5.376024       146.2890 
 488   0.0000       5.389069       146.6440 
 489   0.0000       5.397434       146.8716 
 490   0.0000       5.445176       148.1708 
 491   0.0000       5.459758       148.5676 
 492   0.0000       5.463665       148.6739 
 493   0.0000       5.484089       149.2296 
 494   0.0000       5.500053       149.6640 
 495   0.0000       5.514717       150.0631 
 496   0.0000       5.522591       150.2773 
 497   0.0000       5.527888       150.4215 
 498   0.0000       5.558516       151.2549 
 499   0.0000       5.571386       151.6051 
 500   0.0000       5.597097       152.3048 
 501   0.0000       5.602786       152.4596 
 502   0.0000       5.618706       152.8928 
 503   0.0000       5.631321       153.2360 
 504   0.0000       5.659892       154.0135 
 505   0.0000       5.680026       154.5614 
 506   0.0000       5.697516       155.0373 
 507   0.0000       5.715733       155.5330 
 508   0.0000       5.758674       156.7015 
 509   0.0000       5.770727       157.0295 
 510   0.0000       5.801323       157.8620 
 511   0.0000       5.863818       159.5626 
 512   0.0000       5.871858       159.7814 
 513   0.0000       5.911263       160.8537 
 514   0.0000       5.945176       161.7765 
 515   0.0000       5.953442       162.0014 
 516   0.0000       5.985627       162.8772 
 517   0.0000       5.988327       162.9506 
 518   0.0000       6.019754       163.8058 
 519   0.0000       6.083067       165.5287 
 520   0.0000       6.123325       166.6242 
 521   0.0000       6.129869       166.8022 
 522   0.0000       6.136096       166.9717 
 523   0.0000       6.150944       167.3757 
 524   0.0000       6.293425       171.2528 
 525   0.0000       6.328202       172.1991 
 526   0.0000       6.337397       172.4493 
 527   0.0000       6.350606       172.8088 
 528   0.0000       6.378592       173.5703 
 529   0.0000       6.403333       174.2435 
 530   0.0000       6.406853       174.3393 
 531   0.0000       6.414729       174.5536 
 532   0.0000       6.430635       174.9865 
 533   0.0000       6.450527       175.5278 
 534   0.0000       6.483233       176.4177 
 535   0.0000       6.500686       176.8926 
 536   0.0000       6.518292       177.3717 
 537   0.0000       6.558520       178.4664 
 538   0.0000       6.567287       178.7050 
 539   0.0000       6.590294       179.3310 
 540   0.0000       6.648677       180.9197 
 541   0.0000       6.685451       181.9204 
 542   0.0000       6.701890       182.3677 
 543   0.0000       6.738511       183.3642 
 544   0.0000       6.813722       185.4108 
 545   0.0000       6.832036       185.9091 
 546   0.0000       6.843741       186.2276 
 547   0.0000       6.848420       186.3550 
 548   0.0000       6.915974       188.1932 
 549   0.0000       6.965588       189.5433 
 550   0.0000       7.044185       191.6820 
 551   0.0000       7.093404       193.0213 
 552   0.0000       7.112125       193.5308 
 553   0.0000       7.119377       193.7281 
 554   0.0000       7.220592       196.4823 
 555   0.0000       7.438596       202.4145 
 556   0.0000       7.479881       203.5379 
 557   0.0000       7.491267       203.8477 
 558   0.0000      23.124791       629.2575 
 559   0.0000      23.133920       629.5060 
 560   0.0000      23.237202       632.3164 
 561   0.0000      23.255811       632.8228 
 562   0.0000      23.294328       633.8709 
 563   0.0000      23.411246       637.0524 
 564   0.0000      32.723232       890.4444 
 565   0.0000      32.790587       892.2772 
 566   0.0000      32.944619       896.4686 
 567   0.0000      43.838320      1192.9013 
 568   0.0000      43.861431      1193.5302 
 569   0.0000      43.958550      1196.1730 
 570   0.0000      44.005869      1197.4606 

                    ********************************
                    * MULLIKEN POPULATION ANALYSIS *
                    ********************************

-----------------------
MULLIKEN ATOMIC CHARGES
-----------------------
   0 N :   -0.169141
   1 H :    0.198013
   2 C :   -0.063198
   3 C :    0.301136
   4 H :    0.137118
   5 H :    0.135553
   6 O :   -0.272534
   7 C :    0.332055
   8 C :   -0.089964
   9 O :   -0.475062
  10 N :   -0.179960
  11 H :    0.161147
  12 H :    0.152313
  13 H :    0.183002
  14 C :    0.205992
  15 C :   -0.140647
  16 O :   -0.327521
  17 H :    0.171902
  18 H :    0.144993
  19 O :   -0.301163
  20 H :    0.253648
  21 N :   -0.075664
  22 H :    0.242050
  23 H :    0.241500
  24 H :    0.234432
Sum of atomic charges:    1.0000000

--------------------------------
MULLIKEN REDUCED ORBITAL CHARGES
--------------------------------
  0 N s       :     3.422755  s :     3.422755
      pz      :     1.065765  p :     3.686041
      px      :     1.334406
      py      :     1.285870
      dz2     :     0.015407  d :     0.056446
      dxz     :     0.013990
      dyz     :     0.015285
      dx2y2   :     0.004612
      dxy     :     0.007152
      f0      :     0.000694  f :     0.003899
      f+1     :     0.000632
      f-1     :     0.000769
      f+2     :     0.000317
      f-2     :     0.000486
      f+3     :     0.000473
      f-3     :     0.000527
  1 H s       :     0.731931  s :     0.731931
      pz      :     0.016715  p :     0.064627
      px      :     0.023967
      py      :     0.023944
      dz2     :     0.000748  d :     0.005429
      dxz     :     0.000853
      dyz     :     0.000923
      dx2y2   :     0.001880
      dxy     :     0.001024
  2 C s       :     3.158233  s :     3.158233
      pz      :     0.719819  p :     2.788792
      px      :     1.044498
      py      :     1.024476
      dz2     :     0.023755  d :     0.108283
      dxz     :     0.025398
      dyz     :     0.029826
      dx2y2   :     0.018142
      dxy     :     0.011162
      f0      :     0.002069  f :     0.007890
      f+1     :     0.001916
      f-1     :     0.001924
      f+2     :     0.000302
      f-2     :     0.000592
      f+3     :     0.000594
      f-3     :     0.000493
  3 C s       :     3.069670  s :     3.069670
      pz      :     0.760245  p :     2.333587
      px      :     0.771488
      py      :     0.801853
      dz2     :     0.055900  d :     0.272011
      dxz     :     0.085660
      dyz     :     0.085672
      dx2y2   :     0.030305
      dxy     :     0.014474
      f0      :     0.004017  f :     0.023596
      f+1     :     0.006131
      f-1     :     0.005927
      f+2     :     0.002870
      f-2     :     0.002027
      f+3     :     0.001320
      f-3     :     0.001304
  4 H s       :     0.826783  s :     0.826783
      pz      :     0.008775  p :     0.034011
      px      :     0.009147
      py      :     0.016089
      dz2     :     0.000533  d :     0.002087
      dxz     :     0.000133
      dyz     :     0.000464
      dx2y2   :     0.000360
      dxy     :     0.000598
  5 H s       :     0.828293  s :     0.828293
      pz      :     0.007498  p :     0.034067
      px      :     0.017465
      py      :     0.009103
      dz2     :     0.000291  d :     0.002088
      dxz     :     0.000684
      dyz     :     0.000061
      dx2y2   :     0.000335
      dxy     :     0.000717
  6 O s       :     3.802748  s :     3.802748
      pz      :     1.322550  p :     4.434922
      px      :     1.548845
      py      :     1.563527
      dz2     :     0.011763  d :     0.032949
      dxz     :     0.010254
      dyz     :     0.010157
      dx2y2   :     0.000378
      dxy     :     0.000397
      f0      :     0.000622  f :     0.001915
      f+1     :     0.000592
      f-1     :     0.000577
      f+2     :     0.000059
      f-2     :     0.000057
      f+3     :     0.000004
      f-3     :     0.000003
[...]
     53      -0.391877   0.000151   0.001860   0.451862   0.004381  -0.000212
     54      -0.451063   0.000096  -0.001102  -0.383022  -0.011669  -0.006632
     55      -0.601501   0.000149  -0.001629  -0.523574  -0.010277  -0.008536
     56      -0.031158   0.000005  -0.000129  -0.028673  -0.004996  -0.002395
     57       0.000002  -0.000120   0.000002  -0.000001   0.000007  -0.000008
     58      -0.000003  -0.000073  -0.000002  -0.000000  -0.000005   0.000014
     59      -0.000001   0.000004   0.000001  -0.000000  -0.000006   0.000007
     60       0.000037  -0.000926   0.000047   0.000000  -0.000282   0.000194
     61      -0.000040  -0.000660  -0.000010   0.000009   0.000330  -0.000306
     62      -0.000050   0.000166  -0.000037   0.000005   0.000303  -0.000222
     63      -0.002725   0.000002  -0.000059  -0.000777   0.058118  -0.004919
     64      -0.000406   0.000005   0.000005  -0.001564   0.017918   0.076588
     65       0.001334  -0.000004   0.000054  -0.000413   0.011281  -0.022342
     66       0.005078   0.000032   0.000044   0.012317  -0.619185  -0.307516
     67       0.004523  -0.000025  -0.000043   0.014592  -0.644857  -0.302148
     68      -0.001995   0.000006   0.000044  -0.007480  -0.019060  -0.012180
     69       0.032951  -0.000094   0.001004  -0.008631  -0.022886   0.025100
     70      -0.012548  -0.000063  -0.000440   0.005157   0.014637   0.002143
     71      -0.028506   0.000085  -0.000720   0.015690   0.028931  -0.021146
     72      -0.001510  -0.000010   0.000005   0.000649  -0.161697   0.343894
     73       0.008761   0.000014   0.000132  -0.001803   0.375644  -0.758560
     74       0.001860   0.000016  -0.000037   0.001975  -0.165474   0.335698
                 72         73         74    
      0       0.044929   0.000825  -0.000128
      1      -0.049191  -0.000884   0.000199
      2       0.031481   0.000470   0.000276
      3      -0.606752  -0.010534  -0.000370
      4       0.663921   0.011419   0.000332
      5      -0.430278  -0.007389  -0.000603
      6       0.000016   0.000018  -0.000331
      7      -0.000177  -0.000016   0.000377
      8      -0.000584   0.000021  -0.000070
      9      -0.000408  -0.000030   0.001714
     10       0.000504   0.000035  -0.001948
     11       0.000107   0.000026   0.000304
     12       0.001708  -0.000009  -0.000029
     13       0.003534   0.000066  -0.000664
     14      -0.005122  -0.000166   0.000658
     15      -0.004245  -0.000155   0.000737
     16      -0.001835  -0.000008   0.000022
     17      -0.003951  -0.000091   0.000527
     18       0.000087   0.000009  -0.000260
     19      -0.000074  -0.000011   0.000135
     20       0.000144  -0.000016  -0.000924
     21      -0.000086  -0.000111   0.000122
     22       0.000253   0.000120  -0.000167
     23       0.000970  -0.000093  -0.000116
     24       0.000118   0.000949   0.000016
     25      -0.000211  -0.000108  -0.000027
     26      -0.000063  -0.001102  -0.000001
     27      -0.001122   0.000061  -0.000073
     28       0.001310  -0.000094   0.000083
     29      -0.000170  -0.000054   0.000005
     30      -0.000581   0.032443  -0.000012
     31      -0.001157   0.065561   0.000043
     32       0.000085  -0.002395   0.000021
     33      -0.000361  -0.001810   0.000058
     34       0.001523  -0.010152   0.000196
     35      -0.000407   0.001207  -0.000056
     36      -0.000990  -0.006070  -0.000165
     37       0.000910   0.000118   0.000010
     38      -0.000233   0.000862  -0.000021
     39       0.007236  -0.426645  -0.000258
     40       0.015569  -0.899547  -0.000448
     41      -0.001284   0.054001  -0.000061
     42       0.000126  -0.001231   0.000047
     43      -0.000018   0.001315   0.000005
     44      -0.000050  -0.000764  -0.000010
     45      -0.000014   0.000311  -0.000002
     46      -0.000006   0.000249  -0.000001
     47      -0.000030   0.000216  -0.000006
     48      -0.000028  -0.000725  -0.000017
     49      -0.000004  -0.000783  -0.000005
     50       0.000035  -0.000047   0.000007
     51       0.000017  -0.001271  -0.000012
     52      -0.000002   0.000103   0.000004
     53      -0.000080  -0.000099  -0.000019
     54       0.000110  -0.005178   0.000007
     55      -0.000034  -0.004701  -0.000028
     56      -0.000037  -0.000600  -0.000016
     57       0.000299  -0.000003   0.032148
     58      -0.000367   0.000010  -0.043106
     59      -0.000081   0.000012  -0.030001
     60       0.000699   0.000253  -0.521687
     61      -0.000890  -0.000391   0.699180
     62      -0.000080  -0.000273   0.484959
     63      -0.000633   0.000041  -0.000088
     64       0.000347   0.000292   0.000049
     65       0.000169  -0.000034   0.000031
     66       0.001627  -0.001462   0.000216
     67       0.001449  -0.001876   0.000119
     68       0.000035   0.000159  -0.000012
     69       0.006960   0.000631   0.001113
     70      -0.003489  -0.000430  -0.000575
     71      -0.004309   0.000332  -0.000667
     72       0.001645   0.000938   0.000198
     73      -0.003690  -0.002459  -0.000431
     74       0.001743   0.001168   0.000186


-----------
IR SPECTRUM
-----------

 Mode   freq       eps      Int      T**2         TX        TY        TZ
       cm**-1   L/(mol*cm) km/mol    a.u.
----------------------------------------------------------------------------
  6:     17.32   0.000053    0.27  0.000951  (-0.003683  0.016826  0.025571)
  7:     38.27   0.001254    6.34  0.010228  ( 0.084467  0.055613 -0.001015)
  8:     52.13   0.000481    2.43  0.002878  (-0.028230  0.000619  0.045612)
  9:     67.74   0.001170    5.91  0.005390  ( 0.034253  0.058427  0.028345)
 10:     94.49   0.002777   14.03  0.009171  ( 0.065338 -0.019405 -0.067269)
 11:    125.00   0.003646   18.43  0.009102  ( 0.023630  0.076579  0.051763)
 12:    164.89   0.003391   17.14  0.006419  (-0.031857  0.052746  0.051201)
 13:    169.98   0.005391   27.25  0.009898  (-0.080218  0.006696  0.058465)
 14:    263.59   0.004881   24.66  0.005778  ( 0.073889 -0.016421  0.006987)
 15:    269.81   0.009983   50.45  0.011547  ( 0.055401 -0.059495  0.070269)
 16:    295.86   0.002730   13.79  0.002879  (-0.013574 -0.012838 -0.050300)
 17:    314.81   0.000448    2.27  0.000444  ( 0.015887 -0.009788 -0.009805)
 18:    346.90   0.000304    1.54  0.000274  ( 0.005440 -0.012201  0.009764)
 19:    405.29   0.009967   50.37  0.007674  (-0.064496  0.047827  0.035034)
 20:    438.35   0.003822   19.32  0.002721  (-0.029613  0.033754  0.026546)
 21:    510.36   0.012679   64.07  0.007752  ( 0.068933  0.053268 -0.012774)
 22:    549.31   0.000963    4.87  0.000547  (-0.013608  0.016557  0.009383)
 23:    552.32   0.000681    3.44  0.000385  ( 0.008525  0.016927 -0.005031)
 24:    587.26   0.010079   50.94  0.005356  (-0.058716 -0.002644 -0.043607)
 25:    602.21   0.012673   64.04  0.006567  ( 0.022938 -0.069167 -0.035450)
 26:    619.46   0.003440   17.38  0.001733  (-0.022167 -0.017983  0.030298)
 27:    671.12   0.022484  113.62  0.010455  ( 0.079686  0.064069  0.000072)
 28:    684.37   0.013317   67.30  0.006073  ( 0.039629 -0.001196  0.067087)
 29:    731.40   0.003971   20.07  0.001694  ( 0.034761 -0.019440  0.010404)
 30:    785.50   0.002503   12.65  0.000994  ( 0.004199 -0.001812  0.031199)
 31:    869.34   0.001494    7.55  0.000536  ( 0.009947 -0.004289  0.020469)
 32:    879.10   0.001344    6.79  0.000477  ( 0.006452 -0.020833  0.001186)
 33:    912.16   0.002652   13.40  0.000907  (-0.013094  0.000571  0.027118)
 34:    979.54   0.002440   12.33  0.000778  (-0.005007 -0.003337 -0.027227)
 35:    986.83   0.004011   20.27  0.001268  (-0.023314  0.010750  0.024683)
 36:   1015.49   0.000545    2.75  0.000167  (-0.009965 -0.008224 -0.000705)
 37:   1057.05   0.000931    4.70  0.000275  ( 0.016302 -0.002514  0.001663)
 38:   1076.93   0.002428   12.27  0.000704  ( 0.024387  0.008931 -0.005384)
 39:   1128.68   0.002410   12.18  0.000666  (-0.016153 -0.002292 -0.020007)
 40:   1139.87   0.014462   73.08  0.003959  (-0.039034  0.048621  0.008460)
 41:   1157.84   0.003235   16.35  0.000872  ( 0.011921  0.000994 -0.026998)
 42:   1200.09   0.051205  258.77  0.013315  (-0.075636  0.077141 -0.040538)
 43:   1269.27   0.000479    2.42  0.000118  ( 0.008408  0.006702 -0.001488)
 44:   1275.79   0.006229   31.48  0.001524  (-0.022382  0.024783  0.020208)
 45:   1284.71   0.001509    7.62  0.000366  ( 0.009852 -0.004284 -0.015843)
 46:   1303.01   0.006589   33.30  0.001578  ( 0.033913 -0.020318  0.003885)
 47:   1334.37   0.004183   21.14  0.000978  ( 0.022738 -0.002098 -0.021375)
 48:   1361.28   0.002240   11.32  0.000514  ( 0.016489 -0.013975  0.006807)
 49:   1390.95   0.023847  120.51  0.005350  (-0.047751  0.055092 -0.005912)
 50:   1410.16   0.000514    2.60  0.000114  ( 0.008150 -0.006666  0.001700)
 51:   1422.14   0.000518    2.62  0.000114  ( 0.006755 -0.004285  0.007048)
 52:   1475.52   0.003459   17.48  0.000732  ( 0.000030 -0.017480  0.020641)
 53:   1494.56   0.002407   12.16  0.000503  ( 0.015997 -0.015226 -0.003847)
 54:   1504.44   0.002568   12.98  0.000533  ( 0.001858 -0.019158 -0.012738)
 55:   1538.45   0.027921  141.10  0.005664  ( 0.055512 -0.026645  0.043268)
 56:   1570.49   0.040400  204.16  0.008028  (-0.087360  0.018178  0.008085)
 57:   1602.60   0.057441  290.28  0.011185  ( 0.023364 -0.040064 -0.095048)
 58:   1624.34   0.025802  130.39  0.004957  ( 0.013404 -0.065724 -0.021394)
 59:   1682.21   0.035977  181.81  0.006674  (-0.058089  0.055871  0.013342)
 60:   1726.87   0.064562  326.27  0.011667  (-0.062540  0.083506  0.027973)
 61:   1819.16   0.045295  228.90  0.007770  ( 0.072923  0.046452 -0.017163)
 62:   1891.22   0.070807  357.83  0.011684  ( 0.006020  0.011880  0.107267)
 63:   3025.85   0.171898  868.70  0.017728  ( 0.099771 -0.066837 -0.057505)
 64:   3102.88   0.001294    6.54  0.000130  (-0.002125  0.004973  0.010043)
 65:   3119.14   0.002238   11.31  0.000224  (-0.010798  0.004477  0.009342)
 66:   3132.70   0.000832    4.20  0.000083  ( 0.008927 -0.000204 -0.001773)
 67:   3143.97   0.000046    0.23  0.000005  (-0.002006 -0.000679  0.000308)
 68:   3172.86   0.000160    0.81  0.000016  ( 0.002142  0.002602 -0.002089)
 69:   3203.11   0.000159    0.80  0.000015  (-0.001298  0.002629  0.002617)
 70:   3475.54   0.016960   85.71  0.001523  (-0.038497 -0.003728 -0.005189)
 71:   3556.12   0.021511  108.71  0.001888  ( 0.007438 -0.041432  0.010761)
 72:   3649.54   0.023260  117.55  0.001989  (-0.028349  0.034364  0.002082)
 73:   3660.32   0.008932   45.14  0.000762  (-0.018362 -0.020443 -0.002532)
 74:   3799.29   0.028560  144.33  0.002346  (-0.029711  0.036463  0.011557)

* The epsilon (eps) is given for a Dirac delta lineshape.
** The dipole moment derivative (T) already includes vibrational overlap.

The first frequency considered to be a vibration is 6
The total number of vibrations considered is 69


--------------------------
THERMOCHEMISTRY AT 298.15K
--------------------------

Temperature         ... 298.15 K
Pressure            ... 1.00 atm
Total Mass          ... 190.18 AMU

Throughout the following assumptions are being made:
  (1) The electronic state is orbitally nondegenerate
  (2) There are no thermally accessible electronically excited states
  (3) Hindered rotations indicated by low frequency modes are not
      treated as such but are treated as vibrations and this may
      cause some error
  (4) All equations used are the standard statistical mechanics
      equations for an ideal gas
  (5) All vibrations are strictly harmonic

freq.      17.32  E(vib)   ...       0.57 
freq.      38.27  E(vib)   ...       0.54 
freq.      52.13  E(vib)   ...       0.52 
freq.      67.74  E(vib)   ...       0.50 
freq.      94.49  E(vib)   ...       0.47 
freq.     125.00  E(vib)   ...       0.43 
freq.     164.89  E(vib)   ...       0.39 
freq.     169.98  E(vib)   ...       0.38 
freq.     263.59  E(vib)   ...       0.29 
freq.     269.81  E(vib)   ...       0.29 
freq.     295.86  E(vib)   ...       0.27 
freq.     314.81  E(vib)   ...       0.25 
freq.     346.90  E(vib)   ...       0.23 
freq.     405.29  E(vib)   ...       0.19 
freq.     438.35  E(vib)   ...       0.17 
freq.     510.36  E(vib)   ...       0.14 
freq.     549.31  E(vib)   ...       0.12 
freq.     552.32  E(vib)   ...       0.12 
freq.     587.26  E(vib)   ...       0.10 
freq.     602.21  E(vib)   ...       0.10 
freq.     619.46  E(vib)   ...       0.09 
freq.     671.12  E(vib)   ...       0.08 
freq.     684.37  E(vib)   ...       0.07 
freq.     731.40  E(vib)   ...       0.06 
freq.     785.50  E(vib)   ...       0.05 
freq.     869.34  E(vib)   ...       0.04 
freq.     879.10  E(vib)   ...       0.04 
freq.     912.16  E(vib)   ...       0.03 
freq.     979.54  E(vib)   ...       0.03 
freq.     986.83  E(vib)   ...       0.02 
freq.    1015.49  E(vib)   ...       0.02 
freq.    1057.05  E(vib)   ...       0.02 
freq.    1076.93  E(vib)   ...       0.02 
freq.    1128.68  E(vib)   ...       0.01 
freq.    1139.87  E(vib)   ...       0.01 
freq.    1157.84  E(vib)   ...       0.01 
freq.    1200.09  E(vib)   ...       0.01 
freq.    1269.27  E(vib)   ...       0.01 
freq.    1275.79  E(vib)   ...       0.01 
freq.    1284.71  E(vib)   ...       0.01 
freq.    1303.01  E(vib)   ...       0.01 
freq.    1334.37  E(vib)   ...       0.01 
freq.    1361.28  E(vib)   ...       0.01 
freq.    1390.95  E(vib)   ...       0.00 
freq.    1410.16  E(vib)   ...       0.00 
freq.    1422.14  E(vib)   ...       0.00 
freq.    1475.52  E(vib)   ...       0.00 
freq.    1494.56  E(vib)   ...       0.00 
freq.    1504.44  E(vib)   ...       0.00 
freq.    1538.45  E(vib)   ...       0.00 
freq.    1570.49  E(vib)   ...       0.00 
freq.    1602.60  E(vib)   ...       0.00 
freq.    1624.34  E(vib)   ...       0.00 
freq.    1682.21  E(vib)   ...       0.00 
freq.    1726.87  E(vib)   ...       0.00 
freq.    1819.16  E(vib)   ...       0.00 
freq.    1891.22  E(vib)   ...       0.00 
freq.    3025.85  E(vib)   ...       0.00 
freq.    3102.88  E(vib)   ...       0.00 
freq.    3119.14  E(vib)   ...       0.00 
freq.    3132.70  E(vib)   ...       0.00 
freq.    3143.97  E(vib)   ...       0.00 
freq.    3172.86  E(vib)   ...       0.00 
freq.    3203.11  E(vib)   ...       0.00 
freq.    3475.54  E(vib)   ...       0.00 
freq.    3556.12  E(vib)   ...       0.00 
freq.    3649.54  E(vib)   ...       0.00 
freq.    3660.32  E(vib)   ...       0.00 
freq.    3799.29  E(vib)   ...       0.00 

------------
INNER ENERGY
------------

The inner energy is: U= E(el) + E(ZPE) + E(vib) + E(rot) + E(trans)
    E(el)   - is the total energy from the electronic structure calculation
              = E(kin-el) + E(nuc-el) + E(el-el) + E(nuc-nuc)
    E(ZPE)  - the the zero temperature vibrational energy from the frequency calculation
    E(vib)  - the the finite temperature correction to E(ZPE) due to population
              of excited vibrational states
    E(rot)  - is the rotational thermal energy
    E(trans)- is the translational thermal energy

Summary of contributions to the inner energy U:
Electronic energy                ...   -701.34357553 Eh
Zero point energy                ...      0.20909819 Eh     131.21 kcal/mol
Thermal vibrational correction   ...      0.01079363 Eh       6.77 kcal/mol
Thermal rotational correction    ...      0.00141627 Eh       0.89 kcal/mol
Thermal translational correction ...      0.00141627 Eh       0.89 kcal/mol
-----------------------------------------------------------------------
Total thermal energy                   -701.12085116 Eh


Summary of corrections to the electronic energy:
(perhaps to be used in another calculation)
Total thermal correction                  0.01362618 Eh       8.55 kcal/mol
Non-thermal (ZPE) correction              0.20909819 Eh     131.21 kcal/mol
-----------------------------------------------------------------------
Total correction                          0.22272436 Eh     139.76 kcal/mol


--------
ENTHALPY
--------

The enthalpy is H = U + kB*T
                kB is Boltzmann's constant
Total free energy                 ...   -701.12085116 Eh 
Thermal Enthalpy correction       ...      0.00094421 Eh       0.59 kcal/mol
-----------------------------------------------------------------------
Total Enthalpy                    ...   -701.11990695 Eh


Note: Only C1 symmetry has been detected, increase convergence thresholds 
      if your molecule has a higher symmetry. Symmetry factor of 1.0 is   
      used for the rotational entropy correction. 
 

Note: Rotational entropy computed according to Herzberg 
Infrared and Raman Spectra, Chapter V,1, Van Nostrand Reinhold, 1945 
Point Group:  C1, Symmetry Number:   1  
Rotational constants in cm-1:     0.064715     0.010841     0.009941 

Vibrational entropy computed according to the QRRHO of S. Grimme
Chem.Eur.J. 2012 18 9955


-------
ENTROPY
-------

The entropy contributions are T*S = T*(S(el)+S(vib)+S(rot)+S(trans))
     S(el)   - electronic entropy
     S(vib)  - vibrational entropy
     S(rot)  - rotational entropy
     S(trans)- translational entropy
The entropies will be listed as multiplied by the temperature to get
units of energy

Electronic entropy                ...      0.00000000 Eh      0.00 kcal/mol
Vibrational entropy               ...      0.01949593 Eh     12.23 kcal/mol
Rotational entropy                ...      0.01511608 Eh      9.49 kcal/mol
Translational entropy             ...      0.01978162 Eh     12.41 kcal/mol
-----------------------------------------------------------------------
Final entropy term                ...      0.05439362 Eh     34.13 kcal/mol

In case the symmetry of your molecule has not been determined correctly
or in case you have a reason to use a different symmetry number we print 
out the resulting rotational entropy values for sn=1,12 :
 --------------------------------------------------------
|  sn= 1 | S(rot)=       0.01511608 Eh      9.49 kcal/mol|
|  sn= 2 | S(rot)=       0.01446162 Eh      9.07 kcal/mol|
|  sn= 3 | S(rot)=       0.01407879 Eh      8.83 kcal/mol|
|  sn= 4 | S(rot)=       0.01380716 Eh      8.66 kcal/mol|
|  sn= 5 | S(rot)=       0.01359648 Eh      8.53 kcal/mol|
|  sn= 6 | S(rot)=       0.01342433 Eh      8.42 kcal/mol|
|  sn= 7 | S(rot)=       0.01327879 Eh      8.33 kcal/mol|
|  sn= 8 | S(rot)=       0.01315271 Eh      8.25 kcal/mol|
|  sn= 9 | S(rot)=       0.01304150 Eh      8.18 kcal/mol|
|  sn=10 | S(rot)=       0.01294202 Eh      8.12 kcal/mol|
|  sn=11 | S(rot)=       0.01285203 Eh      8.06 kcal/mol|
|  sn=12 | S(rot)=       0.01276988 Eh      8.01 kcal/mol|
 --------------------------------------------------------


-------------------
GIBBS FREE ENERGY
-------------------

The Gibbs free energy is G = H - T*S

Total enthalpy                    ...   -701.11990695 Eh 
Total entropy correction          ...     -0.05439362 Eh    -34.13 kcal/mol
-----------------------------------------------------------------------
Final Gibbs free energy         ...   -701.17430057 Eh

For completeness - the Gibbs free energy minus the electronic energy
G-E(el)                           ...      0.16927495 Eh    106.22 kcal/mol


Timings for individual modules:

Sum of individual times         ...     8240.984 sec (= 137.350 min)
GTO integral calculation        ...       30.476 sec (=   0.508 min)   0.4 %
SCF iterations                  ...     2618.052 sec (=  43.634 min)  31.8 %
SCF Gradient evaluation         ...      566.189 sec (=   9.436 min)   6.9 %
Geometry relaxation             ...        1.350 sec (=   0.023 min)   0.0 %
Analytical frequency calculation...     4533.405 sec (=  75.557 min)  55.0 %
CHELPG charge generation        ...      491.512 sec (=   8.192 min)   6.0 %
                             ****ORCA TERMINATED NORMALLY****
TOTAL RUN TIME: 0 days 2 hours 17 minutes 57 seconds 449 msec
