
Lmod is automatically replacing "intel/2020.1.217" with "gcc/10.3.0".


Due to MODULEPATH changes, the following have been reloaded:
  1) blis/0.8.1     2) flexiblas/3.0.4

The following have been reloaded with a version change:
  1) gcccore/.9.3.0 => gcccore/.10.3.0        3) openmpi/4.0.3 => openmpi/4.1.1
  2) libfabric/1.10.1 => libfabric/1.12.1     4) ucx/1.8.0 => ucx/1.9.0

To execute ORCA, run: 
   ${EBROOTORCA}/orca orca.inp > orca.out

                                 *****************
                                 * O   R   C   A *
                                 *****************

                                            #,                                       
                                            ###                                      
                                            ####                                     
                                            #####                                    
                                            ######                                   
                                           ########,                                 
                                     ,,################,,,,,                         
                               ,,#################################,,                 
                          ,,##########################################,,             
                       ,#########################################, ''#####,          
                    ,#############################################,,   '####,        
                  ,##################################################,,,,####,       
                ,###########''''           ''''###############################       
              ,#####''   ,,,,##########,,,,          '''####'''          '####       
            ,##' ,,,,###########################,,,                        '##       
           ' ,,###''''                  '''############,,,                           
         ,,##''                                '''############,,,,        ,,,,,,###''
      ,#''                                            '''#######################'''  
     '                                                          ''''####''''         
             ,#######,   #######,   ,#######,      ##                                
            ,#'     '#,  ##    ##  ,#'     '#,    #''#        ######   ,####,        
            ##       ##  ##   ,#'  ##            #'  '#       #        #'  '#        
            ##       ##  #######   ##           ,######,      #####,   #    #        
            '#,     ,#'  ##    ##  '#,     ,#' ,#      #,         ##   #,  ,#        
             '#######'   ##     ##  '#######'  #'      '#     #####' # '####'        



                  #######################################################
                  #                        -***-                        #
                  #          Department of theory and spectroscopy      #
                  #    Directorship and core code : Frank Neese         #
                  #        Max Planck Institute fuer Kohlenforschung    #
                  #                Kaiser Wilhelm Platz 1               #
                  #                 D-45470 Muelheim/Ruhr               #
                  #                      Germany                        #
                  #                                                     #
                  #                  All rights reserved                #
                  #                        -***-                        #
                  #######################################################


                         Program Version 5.0.2 -  RELEASE  -


 With contributions from (in alphabetic order):
   Daniel Aravena         : Magnetic Suceptibility
   Michael Atanasov       : Ab Initio Ligand Field Theory (pilot matlab implementation)
   Alexander A. Auer      : GIAO ZORA, VPT2 properties, NMR spectrum
   Ute Becker             : Parallelization
   Giovanni Bistoni       : ED, misc. LED, open-shell LED, HFLD
   Martin Brehm           : Molecular dynamics
   Dmytro Bykov           : SCF Hessian
   Vijay G. Chilkuri      : MRCI spin determinant printing, contributions to CSF-ICE
   Dipayan Datta          : RHF DLPNO-CCSD density
   Achintya Kumar Dutta   : EOM-CC, STEOM-CC
   Dmitry Ganyushin       : Spin-Orbit,Spin-Spin,Magnetic field MRCI
   Miquel Garcia          : C-PCM and meta-GGA Hessian, CC/C-PCM, Gaussian charge scheme
   Yang Guo               : DLPNO-NEVPT2, F12-NEVPT2, CIM, IAO-localization
   Andreas Hansen         : Spin unrestricted coupled pair/coupled cluster methods
   Benjamin Helmich-Paris : MC-RPA, TRAH-SCF, COSX integrals
   Lee Huntington         : MR-EOM, pCC
   Robert Izsak           : Overlap fitted RIJCOSX, COSX-SCS-MP3, EOM
   Marcus Kettner         : VPT2
   Christian Kollmar      : KDIIS, OOCD, Brueckner-CCSD(T), CCSD density, CASPT2, CASPT2-K
   Simone Kossmann        : Meta GGA functionals, TD-DFT gradient, OOMP2, MP2 Hessian
   Martin Krupicka        : Initial AUTO-CI
   Lucas Lang             : DCDCAS
   Marvin Lechner         : AUTO-CI (C++ implementation), FIC-MRCC
   Dagmar Lenk            : GEPOL surface, SMD
   Dimitrios Liakos       : Extrapolation schemes; Compound Job, initial MDCI parallelization
   Dimitrios Manganas     : Further ROCIS development; embedding schemes
   Dimitrios Pantazis     : SARC Basis sets
   Anastasios Papadopoulos: AUTO-CI, single reference methods and gradients
   Taras Petrenko         : DFT Hessian,TD-DFT gradient, ASA, ECA, R-Raman, ABS, FL, XAS/XES, NRVS
   Peter Pinski           : DLPNO-MP2, DLPNO-MP2 Gradient
   Christoph Reimann      : Effective Core Potentials
   Marius Retegan         : Local ZFS, SOC
   Christoph Riplinger    : Optimizer, TS searches, QM/MM, DLPNO-CCSD(T), (RO)-DLPNO pert. Triples
   Tobias Risthaus        : Range-separated hybrids, TD-DFT gradient, RPA, STAB
   Michael Roemelt        : Original ROCIS implementation
   Masaaki Saitow         : Open-shell DLPNO-CCSD energy and density
   Barbara Sandhoefer     : DKH picture change effects
   Avijit Sen             : IP-ROCIS
   Kantharuban Sivalingam : CASSCF convergence, NEVPT2, FIC-MRCI
   Bernardo de Souza      : ESD, SOC TD-DFT
   Georgi Stoychev        : AutoAux, RI-MP2 NMR, DLPNO-MP2 response
   Willem Van den Heuvel  : Paramagnetic NMR
   Boris Wezisla          : Elementary symmetry handling
   Frank Wennmohs         : Technical directorship


 We gratefully acknowledge several colleagues who have allowed us to
 interface, adapt or use parts of their codes:
   Stefan Grimme, W. Hujo, H. Kruse, P. Pracht,  : VdW corrections, initial TS optimization,
                  C. Bannwarth, S. Ehlert          DFT functionals, gCP, sTDA/sTD-DF
   Ed Valeev, F. Pavosevic, A. Kumar             : LibInt (2-el integral package), F12 methods
   Garnet Chan, S. Sharma, J. Yang, R. Olivares  : DMRG
   Ulf Ekstrom                                   : XCFun DFT Library
   Mihaly Kallay                                 : mrcc  (arbitrary order and MRCC methods)
   Jiri Pittner, Ondrej Demel                    : Mk-CCSD
   Frank Weinhold                                : gennbo (NPA and NBO analysis)
   Christopher J. Cramer and Donald G. Truhlar   : smd solvation model
   Lars Goerigk                                  : TD-DFT with DH, B97 family of functionals
   V. Asgeirsson, H. Jonsson                     : NEB implementation
   FAccTs GmbH                                   : IRC, NEB, NEB-TS, DLPNO-Multilevel, CI-OPT
                                                   MM, QMMM, 2- and 3-layer-ONIOM, Crystal-QMMM,
                                                   LR-CPCM, SF, NACMEs, symmetry and pop. for TD-DFT,
                                                   nearIR, NL-DFT gradient (VV10), updates on ESD,
                                                   ML-optimized integration grids
   S Lehtola, MJT Oliveira, MAL Marques          : LibXC Library
   Liviu Ungur et al                             : ANISO software


 Your calculation uses the libint2 library for the computation of 2-el integrals
 For citations please refer to: http://libint.valeyev.net

 Your ORCA version has been built with support for libXC version: 5.1.0
 For citations please refer to: https://tddft.org/programs/libxc/

 This ORCA versions uses:
   CBLAS   interface :  Fast vector & matrix operations
   LAPACKE interface :  Fast linear algebra routines
   SCALAPACK package :  Parallel linear algebra routines
   Shared memory     :  Shared parallel matrices
   BLAS/LAPACK       :  OpenBLAS 0.3.15  USE64BITINT DYNAMIC_ARCH NO_AFFINITY Zen SINGLE_THREADED
        Core in use  :  Zen
   Copyright (c) 2011-2014, The OpenBLAS Project


Your calculation utilizes the atom-pairwise dispersion correction
with the Becke-Johnson damping scheme (D3BJ)
Cite in your paper:
S.Grimme, S.Ehrlich, L.Goerigk, J Comput Chem, (2011), 32, 1456–1465 
S.Grimme, J.Antony, S.Ehrlich and H.Krieg, J.Chem.Phys., 132, (2010), 154104 
   

================================================================================

----- Orbital basis set information -----
Your calculation utilizes the basis: def2-TZVPP
   F. Weigend and R. Ahlrichs, Phys. Chem. Chem. Phys. 7, 3297 (2005).

----- AuxJ basis set information -----
Your calculation utilizes the auxiliary basis: def2/J
   F. Weigend, Phys. Chem. Chem. Phys. 8, 1057 (2006).

================================================================================
                                        WARNINGS
                       Please study these warnings very carefully!
================================================================================


WARNING: Geometry Optimization
  ===> : Switching off AutoStart
         For restart on a previous wavefunction, please use MOREAD

INFO   : the flag for use of the SHARK integral package has been found!

================================================================================
                                       INPUT FILE
================================================================================
NAME = GGG-H_tt_025_OptFreq.inp
|  1> # GGG-H_tt_025 (old 153)
|  2> ! wB97X-D3BJ Opt Freq def2-TZVPP def2/J RIJCOSX VeryTightSCF
|  3> ! PAL8 defgrid3 VeryTightOpt
|  4> 
|  5> %maxcore 4096
|  6> 
|  7> %geom
|  8>   MaxIter 300
|  9>   # MaxStep 0.1
| 10>   Calc_Hess true
| 11>   Recalc_Hess 10
| 12> end
| 13> 
| 14> %chelpg
| 15>   grid 0.1
| 16>   rmax 3.0
| 17> end
| 18> 
| 19> * xyz 1 1 
| 20>  N   -3.269947   +1.554418   +0.150729
| 21>  H   -3.034395   +2.540950   +0.048685
| 22>  C   -4.671185   +1.175293   +0.053959
| 23>  C   -5.307151   +1.413400   -1.317017
| 24>  H   -4.740197   +0.098016   +0.274772
| 25>  H   -5.273036   +1.714125   +0.804605
| 26>  O   -6.473766   +1.208696   -1.551033
| 27>  C   -2.281000   +0.637258   +0.068786
| 28>  C   -0.840818   +1.187480   +0.009403
| 29>  O   -2.459478   -0.584766   +0.054554
| 30>  N   +0.000000   +0.000000   +0.000000
| 31>  H   -0.613692   +1.827380   +0.880593
| 32>  H   -0.688143   +1.788566   -0.905707
| 33>  H   -0.590169   -0.856396   +0.006928
| 34>  C   +1.322592   +0.000000   +0.000000
| 35>  C   +2.055965   -1.371031   -0.000334
| 36>  O   +2.058107   +1.010545   +0.000000
| 37>  H   +1.822549   -1.964133   -0.897326
| 38>  H   +1.822522   -1.964825   +0.896197
| 39>  O   -4.411522   +1.880436   -2.224673
| 40>  H   -4.906596   +1.998858   -3.064496
| 41>  N   +3.496347   -0.961306   +0.000198
| 42>  H   +4.019182   -1.258309   -0.835007
| 43>  H   +3.329480   +0.144838   -0.000035
| 44>  H   +4.017127   -1.257629   +0.836948
| 45> *
| 46> 
| 47>                          ****END OF INPUT****
================================================================================

                       *****************************
                       * Geometry Optimization Run *
                       *****************************

Geometry optimization settings:
Update method            Update   .... BFGS
Choice of coordinates    CoordSys .... Z-matrix Internals
Initial Hessian          InHess   .... Almoef's Model

Convergence Tolerances:
Energy Change            TolE     ....  2.0000e-07 Eh
Max. Gradient            TolMAXG  ....  3.0000e-05 Eh/bohr
RMS Gradient             TolRMSG  ....  8.0000e-06 Eh/bohr
Max. Displacement        TolMAXD  ....  2.0000e-04 bohr
RMS Displacement         TolRMSD  ....  1.0000e-04 bohr
Strict Convergence                ....  False
------------------------------------------------------------------------------
                        ORCA OPTIMIZATION COORDINATE SETUP
------------------------------------------------------------------------------

The optimization will be done in new redundant internal coordinates
Making redundant internal coordinates   ...  (new redundants) done
Evaluating the initial hessian          ...  (Is done on the fly) done
Evaluating the coordinates              ...  done
Calculating the B-matrix                .... done
Calculating the G-matrix                .... done
Diagonalizing the G-matrix              .... done
Small eigenvalue found = 5.376e-03
Small eigenvalue found = 1.172e-02
Small eigenvalue found = 2.939e-02
The first mode is                       ....   44
The number of degrees of freedom        ....   69

    -----------------------------------------------------------------
                    Redundant Internal Coordinates


    -----------------------------------------------------------------
         Definition                    Initial Value    d2E/dq (diagonal element)
    -----------------------------------------------------------------
      1. B(H   1,N   0)                  1.0194         0.000000   
      2. B(C   2,N   0)                  1.4548         0.000000   
      3. B(C   3,C   2)                  1.5299         0.000000   
      4. B(H   4,C   2)                  1.1018         0.000000   
      5. B(H   5,C   2)                  1.1027         0.000000   
      6. B(O   6,C   3)                  1.2073         0.000000   
      7. B(C   7,N   0)                  1.3513         0.000000   
      8. B(C   8,C   7)                  1.5429         0.000000   
      9. B(O   9,C   7)                  1.2351         0.000000   
     10. B(N  10,C   8)                  1.4551         0.000000   
     11. B(H  11,C   8)                  1.1045         0.000000   
     12. B(H  12,C   8)                  1.1055         0.000000   
     13. B(H  13,N  10)                  1.0401         0.000000   
     14. B(C  14,N  10)                  1.3226         0.000000   
     15. B(C  15,C  14)                  1.5549         0.000000   
     16. B(O  16,C  14)                  1.2499         0.000000   
     17. B(H  17,C  15)                  1.1004         0.000000   
     18. B(H  18,C  15)                  1.1004         0.000000   
     19. B(O  19,C   3)                  1.3580         0.000000   
     20. B(H  20,O  19)                  0.9821         0.000000   
     21. B(N  21,C  15)                  1.4975         0.000000   
     22. B(H  22,N  21)                  1.0291         0.000000   
     23. B(H  23,N  21)                  1.1187         0.000000   
     24. B(H  24,N  21)                  1.0292         0.000000   
     25. A(H   1,N   0,C   2)          117.9109         0.000000   
     26. A(C   2,N   0,C   7)          121.6004         0.000000   
     27. A(H   1,N   0,C   7)          118.7954         0.000000   
     28. A(C   3,C   2,H   5)          107.8826         0.000000   
     29. A(C   3,C   2,H   4)          107.8008         0.000000   
     30. A(N   0,C   2,H   4)          107.5647         0.000000   
     31. A(N   0,C   2,C   3)          114.7974         0.000000   
     32. A(N   0,C   2,H   5)          110.6743         0.000000   
     33. A(H   4,C   2,H   5)          107.8868         0.000000   
     34. A(O   6,C   3,O  19)          124.4749         0.000000   
     35. A(C   2,C   3,O  19)          112.2290         0.000000   
     36. A(C   2,C   3,O   6)          123.2958         0.000000   
     37. A(C   8,C   7,O   9)          119.1638         0.000000   
     38. A(N   0,C   7,O   9)          124.5072         0.000000   
     39. A(N   0,C   7,C   8)          116.3237         0.000000   
     40. A(C   7,C   8,H  11)          111.6041         0.000000   
     41. A(C   7,C   8,N  10)          104.3953         0.000000   
     42. A(H  11,C   8,H  12)          108.0297         0.000000   
     43. A(N  10,C   8,H  12)          111.0140         0.000000   
     44. A(C   7,C   8,H  12)          110.7747         0.000000   
     45. A(N  10,C   8,H  11)          111.0431         0.000000   
     46. A(H  13,N  10,C  14)          124.5711         0.000000   
     47. A(C   8,N  10,C  14)          125.3003         0.000000   
     48. A(C   8,N  10,H  13)          110.1234         0.000000   
     49. A(C  15,C  14,O  16)          115.8088         0.000000   
     50. A(N  10,C  14,O  16)          126.0486         0.000000   
     51. A(N  10,C  14,C  15)          118.1426         0.000000   
     52. A(H  17,C  15,H  18)          109.1651         0.000000   
     53. A(C  14,C  15,H  18)          112.0607         0.000000   
     54. A(C  14,C  15,H  17)          112.0488         0.000000   
     55. A(H  18,C  15,N  21)          110.5732         0.000000   
     56. A(H  17,C  15,N  21)          110.5967         0.000000   
     57. A(C  14,C  15,N  21)          102.2639         0.000000   
     58. A(C   3,O  19,H  20)          106.2944         0.000000   
     59. A(H  23,N  21,H  24)          111.1221         0.000000   
     60. A(H  22,N  21,H  24)          108.6423         0.000000   
     61. A(C  15,N  21,H  24)          114.0935         0.000000   
     62. A(H  22,N  21,H  23)          111.1602         0.000000   
     63. A(C  15,N  21,H  23)           97.3001         0.000000   
     64. A(C  15,N  21,H  22)          114.1670         0.000000   
     65. D(H   4,C   2,N   0,C   7)     19.8534         0.000000   
     66. D(H   5,C   2,N   0,C   7)    137.4846         0.000000   
     67. D(H   5,C   2,N   0,H   1)    -57.5272         0.000000   
     68. D(H   4,C   2,N   0,H   1)   -175.1585         0.000000   
     69. D(C   3,C   2,N   0,H   1)     64.8764         0.000000   
     70. D(C   3,C   2,N   0,C   7)   -100.1117         0.000000   
     71. D(O   6,C   3,C   2,H   4)     63.4862         0.000000   
     72. D(O  19,C   3,C   2,H   5)    127.0444         0.000000   
     73. D(O  19,C   3,C   2,H   4)   -116.6886         0.000000   
     74. D(O   6,C   3,C   2,H   5)    -52.7808         0.000000   
     75. D(O  19,C   3,C   2,N   0)      3.1455         0.000000   
     76. D(O   6,C   3,C   2,N   0)   -176.6797         0.000000   
     77. D(O   9,C   7,N   0,H   1)   -173.0892         0.000000   
     78. D(C   8,C   7,N   0,C   2)    172.6181         0.000000   
     79. D(C   8,C   7,N   0,H   1)      7.7585         0.000000   
     80. D(O   9,C   7,N   0,C   2)     -8.2297         0.000000   
     81. D(H  12,C   8,C   7,O   9)    117.3874         0.000000   
     82. D(H  12,C   8,C   7,N   0)    -63.4126         0.000000   
     83. D(H  11,C   8,C   7,O   9)   -122.1965         0.000000   
     84. D(N  10,C   8,C   7,O   9)     -2.1725         0.000000   
     85. D(N  10,C   8,C   7,N   0)    177.0275         0.000000   
     86. D(H  11,C   8,C   7,N   0)     57.0035         0.000000   
     87. D(C  14,N  10,C   8,H  12)     63.0461         0.000000   
     88. D(C  14,N  10,C   8,H  11)    -57.1555         0.000000   
     89. D(C  14,N  10,C   8,C   7)   -177.5555         0.000000   
     90. D(H  13,N  10,C   8,H  12)   -117.7582         0.000000   
     91. D(H  13,N  10,C   8,H  11)    122.0402         0.000000   
     92. D(H  13,N  10,C   8,C   7)      1.6401         0.000000   
     93. D(O  16,C  14,N  10,C   8)     -0.4537         0.000000   
     94. D(C  15,C  14,N  10,H  13)      0.4775         0.000000   
     95. D(C  15,C  14,N  10,C   8)    179.5603         0.000000   
     96. D(O  16,C  14,N  10,H  13)   -179.5365         0.000000   
     97. D(N  21,C  15,C  14,O  16)      0.0295         0.000000   
     98. D(N  21,C  15,C  14,N  10)   -179.9831         0.000000   
     99. D(H  18,C  15,C  14,O  16)    118.4612         0.000000   
    100. D(H  18,C  15,C  14,N  10)    -61.5514         0.000000   
    101. D(H  17,C  15,C  14,O  16)   -118.4244         0.000000   
    102. D(H  17,C  15,C  14,N  10)     61.5631         0.000000   
    103. D(H  20,O  19,C   3,O   6)     -0.3282         0.000000   
    104. D(H  20,O  19,C   3,C   2)    179.8491         0.000000   
    105. D(H  24,N  21,C  15,H  18)     -2.4308         0.000000   
    106. D(H  24,N  21,C  15,H  17)   -123.4721         0.000000   
    107. D(H  24,N  21,C  15,C  14)    117.0500         0.000000   
    108. D(H  23,N  21,C  15,H  18)   -119.5125         0.000000   
    109. D(H  23,N  21,C  15,H  17)    119.4462         0.000000   
    110. D(H  23,N  21,C  15,C  14)     -0.0317         0.000000   
    111. D(H  22,N  21,C  15,H  18)    123.3344         0.000000   
    112. D(H  22,N  21,C  15,H  17)      2.2932         0.000000   
    113. D(H  22,N  21,C  15,C  14)   -117.1847         0.000000   
    -----------------------------------------------------------------

Number of atoms                         .... 25
Number of degrees of freedom            .... 113

         *************************************************************
         *                GEOMETRY OPTIMIZATION CYCLE   1            *
         *************************************************************
---------------------------------
CARTESIAN COORDINATES (ANGSTROEM)
---------------------------------
  N     -3.269947    1.554418    0.150729
  H     -3.034395    2.540950    0.048685
  C     -4.671185    1.175293    0.053959
  C     -5.307151    1.413400   -1.317017
  H     -4.740197    0.098016    0.274772
  H     -5.273036    1.714125    0.804605
  O     -6.473766    1.208696   -1.551033
  C     -2.281000    0.637258    0.068786
  C     -0.840818    1.187480    0.009403
  O     -2.459478   -0.584766    0.054554
  N      0.000000    0.000000    0.000000
  H     -0.613692    1.827380    0.880593
  H     -0.688143    1.788566   -0.905707
  H     -0.590169   -0.856396    0.006928
  C      1.322592    0.000000    0.000000
  C      2.055965   -1.371031   -0.000334
  O      2.058107    1.010545    0.000000
  H      1.822549   -1.964133   -0.897326
  H      1.822522   -1.964825    0.896197
  O     -4.411522    1.880436   -2.224673
  H     -4.906596    1.998858   -3.064496
  N      3.496347   -0.961306    0.000198
  H      4.019182   -1.258309   -0.835007
  H      3.329480    0.144838   -0.000035
  H      4.017127   -1.257629    0.836948

----------------------------
CARTESIAN COORDINATES (A.U.)
----------------------------
  NO LB      ZA    FRAG     MASS         X           Y           Z
   0 N     7.0000    0    14.007   -6.179304    2.937424    0.284837
   1 H     1.0000    0     1.008   -5.734176    4.801700    0.092001
   2 C     6.0000    0    12.011   -8.827260    2.220982    0.101968
   3 C     6.0000    0    12.011  -10.029062    2.670939   -2.488801
   4 H     1.0000    0     1.008   -8.957674    0.185223    0.519244
   5 H     1.0000    0     1.008   -9.964594    3.239227    1.520483
   6 O     8.0000    0    15.999  -12.233645    2.284104   -2.931028
   7 C     6.0000    0    12.011   -4.310465    1.204243    0.129987
   8 C     6.0000    0    12.011   -1.588916    2.244012    0.017769
   9 O     8.0000    0    15.999   -4.647740   -1.105048    0.103092
  10 N     7.0000    0    14.007    0.000000    0.000000    0.000000
  11 H     1.0000    0     1.008   -1.159710    3.453248    1.664080
  12 H     1.0000    0     1.008   -1.300402    3.379900   -1.711538
  13 H     1.0000    0     1.008   -1.115258   -1.618354    0.013092
  14 C     6.0000    0    12.011    2.499337    0.000000    0.000000
  15 C     6.0000    0    12.011    3.885211   -2.590873   -0.000631
  16 O     8.0000    0    15.999    3.889259    1.909653    0.000000
  17 H     1.0000    0     1.008    3.444118   -3.711673   -1.695700
  18 H     1.0000    0     1.008    3.444067   -3.712981    1.693567
  19 O     8.0000    0    15.999   -8.336568    3.553509   -4.204023
  20 H     1.0000    0     1.008   -9.272123    3.777294   -5.791058
  21 N     7.0000    0    14.007    6.607138   -1.816605    0.000374
  22 H     1.0000    0     1.008    7.595153   -2.377859   -1.577935
  23 H     1.0000    0     1.008    6.291805    0.273704   -0.000066
  24 H     1.0000    0     1.008    7.591270   -2.376574    1.581603

--------------------------------
INTERNAL COORDINATES (ANGSTROEM)
--------------------------------
 N      0   0   0     0.000000000000     0.00000000     0.00000000
 H      1   0   0     1.019383691092     0.00000000     0.00000000
 C      1   2   0     1.454842991930   117.91086034     0.00000000
 C      3   1   2     1.529942119553   114.79743621    64.87639837
 H      3   1   2     1.101837906337   107.56466230   184.84147698
 H      3   1   2     1.102739301803   110.67433379   302.47275717
 O      4   3   1     1.207334988351   123.29582076   183.32033957
 C      1   2   3     1.351263589999   118.79539266   165.41937571
 C      8   1   2     1.542852806685   116.32369629     7.75854229
 O      8   1   2     1.235070687404   124.50723486   186.91077977
 N      9   8   1     1.455050540680   104.39527320   177.02748724
 H      9   8   1     1.104549793344   111.60410970    57.00350857
 H      9   8   1     1.105459337615   110.77470003   296.58739946
 H     11   9   8     1.040077667562   110.12340514     1.64013127
 C     11   9   8     1.322592000000   125.30028714   182.44445237
 C     15  11   9     1.554851141314   118.14260253   179.56027372
 O     15  11   9     1.249873398489   126.04862323   359.54631577
 H     16  15  11     1.100385232327   112.04884754    61.56307679
 H     16  15  11     1.100388468972   112.06069974   298.44864090
 O      4   3   1     1.357981349383   112.22904689     3.14553030
 H     20   4   3     0.982051275081   106.29444573   179.84906974
 N     16  15  11     1.497523009697   102.26388841   180.01692175
 H     22  16  15     1.029142658361   114.16696049   242.81528041
 H     22  16  15     1.118659554428    97.30005276   359.96834134
 H     22  16  15     1.029159701518   114.09354054   117.04998902

---------------------------
INTERNAL COORDINATES (A.U.)
---------------------------
 N      0   0   0     0.000000000000     0.00000000     0.00000000
 H      1   0   0     1.926356001549     0.00000000     0.00000000
 C      1   2   0     2.749254822603   117.91086034     0.00000000
 C      3   1   2     2.891171606705   114.79743621    64.87639837
 H      3   1   2     2.082171886951   107.56466230   184.84147698
 H      3   1   2     2.083875277519   110.67433379   302.47275717
 O      4   3   1     2.281532479885   123.29582076   183.32033957
 C      1   2   3     2.553518119838   118.79539266   165.41937571
 C      8   1   2     2.915569269587   116.32369629     7.75854229
 O      8   1   2     2.333945355227   124.50723486   186.91077977
 N      9   8   1     2.749647032899   104.39527320   177.02748724
 H      9   8   1     2.087296610699   111.60410970    57.00350857
 H      9   8   1     2.089015400279   110.77470003   296.58739946
 H     11   9   8     1.965461949700   110.12340514     1.64013127
 C     11   9   8     2.499336666915   125.30028714   182.44445237
 C     15  11   9     2.938242836099   118.14260253   179.56027372
 O     15  11   9     2.361918425217   126.04862323   359.54631577
 H     16  15  11     2.079426730910   112.04884754    61.56307679
 H     16  15  11     2.079432847282   112.06069974   298.44864090
 O      4   3   1     2.566212845307   112.22904689     3.14553030
 H     20   4   3     1.855807959372   106.29444573   179.84906974
 N     16  15  11     2.829908367573   102.26388841   180.01692175
 H     22  16  15     1.944797777039   114.16696049   242.81528041
 H     22  16  15     2.113960194964    97.30005276   359.96834134
 H     22  16  15     1.944829983938   114.09354054   117.04998902

---------------------
BASIS SET INFORMATION
---------------------
There are 4 groups of distinct atoms

 Group   1 Type N   : 11s6p2d1f contracted to 5s3p2d1f pattern {62111/411/11/1}
 Group   2 Type H   : 5s2p1d contracted to 3s2p1d pattern {311/11/1}
 Group   3 Type C   : 11s6p2d1f contracted to 5s3p2d1f pattern {62111/411/11/1}
 Group   4 Type O   : 11s6p2d1f contracted to 5s3p2d1f pattern {62111/411/11/1}

Atom   0N    basis set group =>   1
Atom   1H    basis set group =>   2
Atom   2C    basis set group =>   3
Atom   3C    basis set group =>   3
Atom   4H    basis set group =>   2
Atom   5H    basis set group =>   2
Atom   6O    basis set group =>   4
Atom   7C    basis set group =>   3
Atom   8C    basis set group =>   3
Atom   9O    basis set group =>   4
Atom  10N    basis set group =>   1
Atom  11H    basis set group =>   2
Atom  12H    basis set group =>   2
Atom  13H    basis set group =>   2
Atom  14C    basis set group =>   3
Atom  15C    basis set group =>   3
Atom  16O    basis set group =>   4
Atom  17H    basis set group =>   2
Atom  18H    basis set group =>   2
Atom  19O    basis set group =>   4
Atom  20H    basis set group =>   2
Atom  21N    basis set group =>   1
Atom  22H    basis set group =>   2
Atom  23H    basis set group =>   2
Atom  24H    basis set group =>   2
---------------------------------
AUXILIARY/J BASIS SET INFORMATION
---------------------------------
There are 4 groups of distinct atoms

 Group   1 Type N   : 12s5p4d2f1g contracted to 6s4p3d1f1g pattern {711111/2111/211/2/1}
 Group   2 Type H   : 5s2p1d contracted to 3s1p1d pattern {311/2/1}
 Group   3 Type C   : 12s5p4d2f1g contracted to 6s4p3d1f1g pattern {711111/2111/211/2/1}
 Group   4 Type O   : 12s5p4d2f1g contracted to 6s4p3d1f1g pattern {711111/2111/211/2/1}

Atom   0N    basis set group =>   1
Atom   1H    basis set group =>   2
Atom   2C    basis set group =>   3
Atom   3C    basis set group =>   3
Atom   4H    basis set group =>   2
Atom   5H    basis set group =>   2
Atom   6O    basis set group =>   4
Atom   7C    basis set group =>   3
Atom   8C    basis set group =>   3
Atom   9O    basis set group =>   4
Atom  10N    basis set group =>   1
Atom  11H    basis set group =>   2
Atom  12H    basis set group =>   2
Atom  13H    basis set group =>   2
Atom  14C    basis set group =>   3
Atom  15C    basis set group =>   3
Atom  16O    basis set group =>   4
Atom  17H    basis set group =>   2
Atom  18H    basis set group =>   2
Atom  19O    basis set group =>   4
Atom  20H    basis set group =>   2
Atom  21N    basis set group =>   1
Atom  22H    basis set group =>   2
Atom  23H    basis set group =>   2
Atom  24H    basis set group =>   2


           ************************************************************
           *        Program running with 8 parallel MPI-processes     *
           *              working on a common directory               *
           ************************************************************
------------------------------------------------------------------------------
                           ORCA GTO INTEGRAL CALCULATION
                           -- RI-GTO INTEGRALS CHOSEN --
------------------------------------------------------------------------------
------------------------------------------------------------------------------
                   ___                                                        
                  /   \      - P O W E R E D   B Y -                         
                 /     \                                                     
                 |  |  |   _    _      __       _____    __    __             
                 |  |  |  | |  | |    /  \     |  _  \  |  |  /  |          
                  \  \/   | |  | |   /    \    | | | |  |  | /  /          
                 / \  \   | |__| |  /  /\  \   | |_| |  |  |/  /          
                |  |  |   |  __  | /  /__\  \  |    /   |      \           
                |  |  |   | |  | | |   __   |  |    \   |  |\   \          
                \     /   | |  | | |  |  |  |  | |\  \  |  | \   \       
                 \___/    |_|  |_| |__|  |__|  |_| \__\ |__|  \__/        
                                                                              
                      - O R C A' S   B I G   F R I E N D -                    
                                      &                                       
                       - I N T E G R A L  F E E D E R -                       
                                                                              
 v1 FN, 2020, v2 2021                                                         
------------------------------------------------------------------------------


Reading SHARK input file GGG-H_tt_025_OptFreq.SHARKINP.tmp ... ok
----------------------
SHARK INTEGRAL PACKAGE
----------------------

Number of atoms                             ...     25
Number of basis functions                   ...    571
Number of shells                            ...    215
Maximum angular momentum                    ...      3
Integral batch strategy                     ... SHARK/LIBINT Hybrid
RI-J (if used) integral strategy            ... SPLIT-RIJ (Revised 2003 algorithm where possible)
Printlevel                                  ...      1
Contraction scheme used                     ... SEGMENTED contraction
Coulomb Range Separation                    ... NOT USED
Exchange Range Separation                   ... Long Range
   Mu parameter                             ...  0.300000
   Scaling (regular/separated)              ...  0.167000  0.833000
Finite Nucleus Model                        ... NOT USED
Auxiliary Coulomb fitting basis             ... AVAILABLE
   # of basis functions in Aux-J            ...    769
   # of shells in Aux-J                     ...    255
   Maximum angular momentum in Aux-J        ...      4
Auxiliary J/K fitting basis                 ... NOT available
Auxiliary Correlation fitting basis         ... NOT available
Auxiliary 'external' fitting basis          ... NOT available
Integral threshold                          ...     1.000000e-12
Primitive cut-off                           ...     1.000000e-14
Primitive pair pre-selection threshold      ...     1.000000e-14

Calculating pre-screening integrals         ... done (  0.0 sec) Dimension = 215
Organizing shell pair data                  ... done (  0.1 sec)
Shell pair information
Total number of shell pairs                 ...     23220
Shell pairs after pre-screening             ...     17202
Total number of primitive shell pairs       ...     63868
Primitive shell pairs kept                  ...     34738
          la=0 lb=0:   3853 shell pairs
          la=1 lb=0:   4892 shell pairs
          la=1 lb=1:   1594 shell pairs
          la=2 lb=0:   2698 shell pairs
          la=2 lb=1:   1746 shell pairs
          la=2 lb=2:    489 shell pairs
          la=3 lb=0:    934 shell pairs
          la=3 lb=1:    605 shell pairs
          la=3 lb=2:    327 shell pairs
          la=3 lb=3:     64 shell pairs

Calculating one electron integrals          ... done (  0.1 sec)
Calculating RI/J V-Matrix + Cholesky decomp.... done (  0.3 sec)
Calculating Nuclear repulsion               ... done (  0.0 sec) ENN=    800.706436373623 Eh

SHARK setup successfully completed in   1.5 seconds

Maximum memory used throughout the entire GTOINT-calculation: 29.3 MB


           ************************************************************
           *        Program running with 8 parallel MPI-processes     *
           *              working on a common directory               *
           ************************************************************
-------------------------------------------------------------------------------
                                 ORCA SCF
-------------------------------------------------------------------------------

------------
SCF SETTINGS
------------
Hamiltonian:
 Density Functional     Method          .... DFT(GTOs)
 Exchange Functional    Exchange        .... WB97X-V
 Correlation Functional Correlation     .... WB97X-V
 Gradients option       PostSCFGGA      .... off
 Hybrid DFT is turned on
   Fraction HF Exchange ScalHFX         ....  0.167000
   Scaling of DF-GGA-X  ScalDFX         ....  0.000000
   Scaling of DF-GGA-C  ScalDFC         ....  1.000000
   Scaling of DF-LDA-C  ScalLDAC        ....  1.000000
   Perturbative correction              ....  0.000000
   Density functional embedding theory  .... OFF
 Long-range corrected/Screened/Range-Separated Hybrid DFT is turned on
   Amount of maximum screened exact exchange              ....  0.833000
   Range separation parameter mu (erf(mu*r12)/r12)        ....  0.300000
 RI-approximation to the Coulomb term is turned on
   Number of AuxJ basis functions       .... 769
   RIJ-COSX (HFX calculated with COS-X)).... on


General Settings:
 Integral files         IntName         .... GGG-H_tt_025_OptFreq
 Hartree-Fock type      HFTyp           .... RHF
 Total Charge           Charge          ....    1
 Multiplicity           Mult            ....    1
 Number of Electrons    NEL             ....  100
 Basis Dimension        Dim             ....  571
 Nuclear Repulsion      ENuc            ....    800.7064363736 Eh

Convergence Acceleration:
 DIIS                   CNVDIIS         .... on
   Start iteration      DIISMaxIt       ....    12
   Startup error        DIISStart       ....  0.200000
   # of expansion vecs  DIISMaxEq       ....     5
   Bias factor          DIISBfac        ....   1.050
   Max. coefficient     DIISMaxC        ....  10.000
 Trust-Rad. Augm. Hess. CNVTRAH         .... auto
   Auto Start mean grad. ratio tolernc. ....  1.125000
   Auto Start start iteration           ....    20
   Auto Start num. interpolation iter.  ....    10
   Max. Number of Micro iterations      ....    16
   Max. Number of Macro iterations      .... Maxiter - #DIIS iter
   Number of Davidson start vectors     ....     2
   Converg. threshold I  (grad. norm)   ....   2.000e-06
   Converg. threshold II (energy diff.) ....   1.000e-09
   Grad. Scal. Fac. for Micro threshold ....   0.100
   Minimum threshold for Micro iter.    ....   0.010
   NR start threshold (gradient norm)   ....   0.001
   Initial trust radius                 ....   0.400
   Minimum AH scaling param. (alpha)    ....   1.000
   Maximum AH scaling param. (alpha)    .... 1000.000
   Orbital update algorithm             .... Taylor
   White noise on init. David. guess    .... on
   Maximum white noise                  ....   0.010
   Quad. conv. algorithm                .... NR
 SOSCF                  CNVSOSCF        .... on
   Start iteration      SOSCFMaxIt      ....   150
   Startup grad/error   SOSCFStart      ....  0.003300
 Level Shifting         CNVShift        .... on
   Level shift para.    LevelShift      ....    0.2500
   Turn off err/grad.   ShiftErr        ....    0.0010
 Zerner damping         CNVZerner       .... off
 Static damping         CNVDamp         .... on
   Fraction old density DampFac         ....    0.7000
   Max. Damping (<1)    DampMax         ....    0.9800
   Min. Damping (>=0)   DampMin         ....    0.0000
   Turn off err/grad.   DampErr         ....    0.1000
 Fernandez-Rico         CNVRico         .... off

SCF Procedure:
 Maximum # iterations   MaxIter         ....   125
 SCF integral mode      SCFMode         .... Direct
   Integral package                     .... SHARK and LIBINT hybrid scheme
 Reset frequency        DirectResetFreq ....    20
 Integral Threshold     Thresh          ....  1.000e-12 Eh
 Primitive CutOff       TCut            ....  1.000e-14 Eh

Convergence Tolerance:
 Convergence Check Mode ConvCheckMode   .... Total+1el-Energy
 Convergence forced     ConvForced      .... 0
 Energy Change          TolE            ....  1.000e-09 Eh
 1-El. energy change                    ....  1.000e-06 Eh
 Orbital Gradient       TolG            ....  2.000e-06
 Orbital Rotation angle TolX            ....  2.000e-06
 DIIS Error             TolErr          ....  1.000e-08


Diagonalization of the overlap matrix:
Smallest eigenvalue                        ... 1.457e-04
Time for diagonalization                   ...    0.046 sec
Threshold for overlap eigenvalues          ... 1.000e-08
Number of eigenvalues below threshold      ... 0
Time for construction of square roots      ...    0.452 sec
Total time needed                          ...    0.499 sec

Time for model grid setup =    0.215 sec

------------------------------
INITIAL GUESS: MODEL POTENTIAL
------------------------------
Loading Hartree-Fock densities                     ... done
Calculating cut-offs                               ... done
Initializing the effective Hamiltonian             ... done
Setting up the integral package (SHARK)            ... done
Starting the Coulomb interaction                   ... done (   0.4 sec)
Reading the grid                                   ... done
Mapping shells                                     ... done
Starting the XC term evaluation                    ... done (   0.2 sec)
  promolecular density results
     # of electrons  =    100.994076879
     EX              =    -58.971036179
     EC              =     -4.263379011
     EX+EC           =    -63.234415190
Transforming the Hamiltonian                       ... done (   0.1 sec)
Diagonalizing the Hamiltonian                      ... done (   0.4 sec)
Back transforming the eigenvectors                 ... done (   0.0 sec)
Now organizing SCF variables                       ... done
                      ------------------
                      INITIAL GUESS DONE (   1.6 sec)
                      ------------------
-------------------
DFT GRID GENERATION
-------------------

General Integration Accuracy     IntAcc      ... 4.959
Radial Grid Type                 RadialGrid  ... OptM3 with GC (2021)
Angular Grid (max. ang.)         AngularGrid ... 6 (Lebedev-590)
Angular grid pruning method      GridPruning ... 4 (adaptive)
Weight generation scheme         WeightScheme... Becke
Basis function cutoff            BFCut       ... 1.0000e-12
Integration weight cutoff        WCut        ... 1.0000e-14
Angular grids for H and He will be reduced by one unit
Partially contracted basis set               ... off
Rotationally invariant grid construction     ... off

Total number of grid points                  ...   290010
Total number of batches                      ...     4544
Average number of points per batch           ...       63
Average number of grid points per atom       ...    11600
Time for grid setup =    3.321 sec

--------------------
COSX GRID GENERATION
--------------------

GRIDX 1
-------
General Integration Accuracy     IntAcc      ... 4.020
Radial Grid Type                 RadialGrid  ... OptM3 with GC (2021)
Angular Grid (max. ang.)         AngularGrid ... 2 (Lebedev-110)
Angular grid pruning method      GridPruning ... 4 (adaptive)
Weight generation scheme         WeightScheme... Becke
Basis function cutoff            BFCut       ... 1.0000e-12
Integration weight cutoff        WCut        ... 1.0000e-14
Angular grids for H and He will be reduced by one unit
Partially contracted basis set               ... on
Rotationally invariant grid construction     ... off

Total number of grid points                  ...    32455
Total number of batches                      ...      522
Average number of points per batch           ...       62
Average number of grid points per atom       ...     1298
UseSFitting                                  ... on

GRIDX 2
-------
General Integration Accuracy     IntAcc      ... 4.338
Radial Grid Type                 RadialGrid  ... OptM3 with GC (2021)
Angular Grid (max. ang.)         AngularGrid ... 3 (Lebedev-194)
Angular grid pruning method      GridPruning ... 4 (adaptive)
Weight generation scheme         WeightScheme... Becke
Basis function cutoff            BFCut       ... 1.0000e-12
Integration weight cutoff        WCut        ... 1.0000e-14
Angular grids for H and He will be reduced by one unit
Partially contracted basis set               ... on
Rotationally invariant grid construction     ... off

Total number of grid points                  ...    71192
Total number of batches                      ...     1127
Average number of points per batch           ...       63
Average number of grid points per atom       ...     2848
UseSFitting                                  ... on

GRIDX 3
-------
General Integration Accuracy     IntAcc      ... 4.871
Radial Grid Type                 RadialGrid  ... OptM3 with GC (2021)
Angular Grid (max. ang.)         AngularGrid ... 4 (Lebedev-302)
Angular grid pruning method      GridPruning ... 4 (adaptive)
Weight generation scheme         WeightScheme... Becke
Basis function cutoff            BFCut       ... 1.0000e-12
Integration weight cutoff        WCut        ... 1.0000e-14
Angular grids for H and He will be reduced by one unit
Partially contracted basis set               ... on
Rotationally invariant grid construction     ... off

Total number of grid points                  ...   135028
Total number of batches                      ...     2123
Average number of points per batch           ...       63
Average number of grid points per atom       ...     5401
UseSFitting                                  ... on

Time for X-Grid setup             =    3.282 sec

--------------
SCF ITERATIONS
--------------
ITER       Energy         Delta-E        Max-DP      RMS-DP      [F,P]     Damp
               ***  Starting incremental Fock matrix formation  ***
  0   -701.1644766702   0.000000000000 0.04646014  0.00042499  0.3431682 0.7000
  1   -701.2108305871  -0.046353916955 0.04875713  0.00038300  0.2340681 0.7000
                               ***Turning on DIIS***
  2   -701.2377536691  -0.026923081933 0.04441475  0.00029950  0.1630578 0.7000
  3   -701.2554889690  -0.017735299928 0.04020958  0.00024199  0.1124315 0.7000
  4   -701.2679410944  -0.012452125351 0.10708100  0.00064001  0.0774246 0.0000
                      *** Initiating the SOSCF procedure ***
                           *** Shutting down DIIS ***
                      *** Re-Reading the Fockian *** 
                      *** Removing any level shift *** 
ITER      Energy       Delta-E        Grad      Rot      Max-DP    RMS-DP
  5   -701.29796356  -0.0300224687  0.002056  0.002056  0.011242  0.000068
               *** Restarting incremental Fock matrix formation ***
  6   -701.29808432  -0.0001207531  0.000812  0.001547  0.006870  0.000040
  7   -701.29811552  -0.0000312010  0.000718  0.002152  0.004623  0.000028
  8   -701.29812196  -0.0000064447  0.000383  0.000572  0.000739  0.000008
  9   -701.29812387  -0.0000019117  0.000124  0.000102  0.000693  0.000004
 10   -701.29812404  -0.0000001637  0.000031  0.000061  0.000279  0.000002
 11   -701.29812415  -0.0000001167  0.000005  0.000017  0.000022  0.000000
 12   -701.29812416  -0.0000000024  0.000004  0.000004  0.000024  0.000000
 13   -701.29812416  -0.0000000015  0.000001  0.000002  0.000008  0.000000
 14   -701.29812416   0.0000000001  0.000001  0.000001  0.000002  0.000000
                  ***Gradient check signals convergence***
              ***Rediagonalizing the Fockian in SOSCF/NRSCF***

               *****************************************************
               *                     SUCCESS                       *
               *           SCF CONVERGED AFTER  15 CYCLES          *
               *****************************************************

Old exchange energy                            =    -27.827353633 Eh
New exchange energy                            =    -27.827355461 Eh
Exchange energy change after final integration =     -0.000001828 Eh
Total energy after final integration           =   -701.298125985 Eh
Final COS-X integration done in                =    27.393 sec

----------------
TOTAL SCF ENERGY
----------------

Total Energy       :         -701.29812599 Eh          -19083.29218 eV

Components:
Nuclear Repulsion  :          800.70643637 Eh           21788.32983 eV
Electronic Energy  :        -1502.00456236 Eh          -40871.62201 eV
One Electron Energy:        -2530.94138018 Eh          -68870.41626 eV
Two Electron Energy:         1028.93681782 Eh           27998.79424 eV
Max COSX asymmetry :            0.00000051 Eh               0.00001 eV

Virial components:
Potential Energy   :        -1399.24175620 Eh          -38075.30390 eV
Kinetic Energy     :          697.94363022 Eh           18992.01171 eV
Virial Ratio       :            2.00480626


DFT components:
N(Alpha)           :       50.000001603036 electrons
N(Beta)            :       50.000001603036 electrons
N(Total)           :      100.000003206072 electrons
E(X)               :      -60.042780998391 Eh       
E(C)               :       -4.263647947741 Eh       
E(XC)              :      -64.306428946132 Eh       
DFET-embed. en.    :        0.000000000000 Eh       

---------------
SCF CONVERGENCE
---------------

  Last Energy change         ...    7.6625e-11  Tolerance :   1.0000e-09
  Last MAX-Density change    ...    1.6653e-15  Tolerance :   1.0000e-08
  Last RMS-Density change    ...    1.2806e-17  Tolerance :   1.0000e-09
  Last Orbital Gradient      ...    8.5362e-08  Tolerance :   2.0000e-06
  Last Orbital Rotation      ...    2.2007e-07  Tolerance :   2.0000e-06

             **** THE GBW FILE WAS UPDATED (GGG-H_tt_025_OptFreq.gbw) ****
             **** DENSITY GGG-H_tt_025_OptFreq.scfp WAS UPDATED ****
             **** ENERGY FILE WAS UPDATED (GGG-H_tt_025_OptFreq.en.tmp) ****
             **** THE GBW FILE WAS UPDATED (GGG-H_tt_025_OptFreq.gbw) ****
             **** DENSITY GGG-H_tt_025_OptFreq.scfp WAS UPDATED ****
----------------
ORBITAL ENERGIES
----------------

  NO   OCC          E(Eh)            E(eV) 
   0   2.0000     -19.372339      -527.1481 
   1   2.0000     -19.365520      -526.9626 
   2   2.0000     -19.321270      -525.7585 
   3   2.0000     -19.300611      -525.1963 
   4   2.0000     -14.693972      -399.8433 
   5   2.0000     -14.607073      -397.4787 
   6   2.0000     -14.573335      -396.5606 
   7   2.0000     -10.563031      -287.4347 
   8   2.0000     -10.523444      -286.3575 
   9   2.0000     -10.519992      -286.2635 
  10   2.0000     -10.509874      -285.9882 
  11   2.0000     -10.468742      -284.8690 
  12   2.0000     -10.435448      -283.9630 
  13   2.0000      -1.364871       -37.1400 
  14   2.0000      -1.339025       -36.4367 
  15   2.0000      -1.312479       -35.7144 
  16   2.0000      -1.286345       -35.0032 
  17   2.0000      -1.247231       -33.9389 
  18   2.0000      -1.228485       -33.4288 
  19   2.0000      -1.191858       -32.4321 
  20   2.0000      -1.062798       -28.9202 
  21   2.0000      -1.017309       -27.6824 
  22   2.0000      -0.973770       -26.4976 
  23   2.0000      -0.886568       -24.1247 
  24   2.0000      -0.872802       -23.7501 
  25   2.0000      -0.871144       -23.7050 
  26   2.0000      -0.848546       -23.0901 
  27   2.0000      -0.836539       -22.7634 
  28   2.0000      -0.807444       -21.9717 
  29   2.0000      -0.774360       -21.0714 
  30   2.0000      -0.757200       -20.6045 
  31   2.0000      -0.756444       -20.5839 
  32   2.0000      -0.727857       -19.8060 
  33   2.0000      -0.724827       -19.7235 
  34   2.0000      -0.715761       -19.4769 
  35   2.0000      -0.705416       -19.1953 
  36   2.0000      -0.682095       -18.5607 
  37   2.0000      -0.680026       -18.5044 
  38   2.0000      -0.667222       -18.1560 
  39   2.0000      -0.658848       -17.9282 
  40   2.0000      -0.641363       -17.4524 
  41   2.0000      -0.624652       -16.9977 
  42   2.0000      -0.607566       -16.5327 
  43   2.0000      -0.607126       -16.5207 
  44   2.0000      -0.571359       -15.5475 
  45   2.0000      -0.538362       -14.6496 
  46   2.0000      -0.529125       -14.3982 
  47   2.0000      -0.519073       -14.1247 
  48   2.0000      -0.510978       -13.9044 
  49   2.0000      -0.473014       -12.8714 
  50   0.0000      -0.082684        -2.2500 
  51   0.0000      -0.074451        -2.0259 
  52   0.0000      -0.030702        -0.8355 
  53   0.0000      -0.028753        -0.7824 
  54   0.0000      -0.021681        -0.5900 
  55   0.0000      -0.011125        -0.3027 
  56   0.0000      -0.003638        -0.0990 
  57   0.0000       0.016997         0.4625 
  58   0.0000       0.021739         0.5915 
  59   0.0000       0.032520         0.8849 
  60   0.0000       0.043615         1.1868 
  61   0.0000       0.051135         1.3915 
  62   0.0000       0.054968         1.4958 
  63   0.0000       0.059091         1.6079 
  64   0.0000       0.074755         2.0342 
  65   0.0000       0.083547         2.2734 
  66   0.0000       0.097827         2.6620 
  67   0.0000       0.108385         2.9493 
  68   0.0000       0.113251         3.0817 
  69   0.0000       0.116718         3.1761 
  70   0.0000       0.130998         3.5646 
  71   0.0000       0.141252         3.8437 
  72   0.0000       0.145252         3.9525 
  73   0.0000       0.153770         4.1843 
  74   0.0000       0.174813         4.7569 
  75   0.0000       0.179728         4.8907 
  76   0.0000       0.187508         5.1023 
  77   0.0000       0.196202         5.3389 
  78   0.0000       0.202982         5.5234 
  79   0.0000       0.214035         5.8242 
  80   0.0000       0.221350         6.0232 
  81   0.0000       0.231114         6.2889 
  82   0.0000       0.242162         6.5896 
  83   0.0000       0.251024         6.8307 
  84   0.0000       0.265789         7.2325 
  85   0.0000       0.270569         7.3626 
  86   0.0000       0.283232         7.7071 
  87   0.0000       0.290272         7.8987 
  88   0.0000       0.293719         7.9925 
  89   0.0000       0.296662         8.0726 
  90   0.0000       0.307841         8.3768 
  91   0.0000       0.316970         8.6252 
  92   0.0000       0.320478         8.7206 
  93   0.0000       0.323117         8.7925 
  94   0.0000       0.327442         8.9101 
  95   0.0000       0.333309         9.0698 
  96   0.0000       0.341041         9.2802 
  97   0.0000       0.347851         9.4655 
  98   0.0000       0.357021         9.7150 
  99   0.0000       0.363094         9.8803 
 100   0.0000       0.366621         9.9763 
 101   0.0000       0.370497        10.0817 
 102   0.0000       0.373369        10.1599 
 103   0.0000       0.383406        10.4330 
 104   0.0000       0.389508        10.5991 
 105   0.0000       0.401907        10.9365 
 106   0.0000       0.404816        11.0156 
 107   0.0000       0.414307        11.2739 
 108   0.0000       0.419585        11.4175 
 109   0.0000       0.433679        11.8010 
 110   0.0000       0.441022        12.0008 
 111   0.0000       0.450604        12.2616 
 112   0.0000       0.451982        12.2990 
 113   0.0000       0.463001        12.5989 
 114   0.0000       0.472664        12.8618 
 115   0.0000       0.479601        13.0506 
 116   0.0000       0.488171        13.2838 
 117   0.0000       0.496723        13.5165 
 118   0.0000       0.512446        13.9444 
 119   0.0000       0.514731        14.0065 
 120   0.0000       0.525383        14.2964 
 121   0.0000       0.534752        14.5513 
 122   0.0000       0.543071        14.7777 
 123   0.0000       0.550000        14.9663 
 124   0.0000       0.558564        15.1993 
 125   0.0000       0.576191        15.6789 
 126   0.0000       0.583419        15.8756 
 127   0.0000       0.589992        16.0545 
 128   0.0000       0.600235        16.3332 
 129   0.0000       0.620062        16.8728 
 130   0.0000       0.621269        16.9056 
 131   0.0000       0.630854        17.1664 
 132   0.0000       0.647081        17.6080 
 133   0.0000       0.649691        17.6790 
 134   0.0000       0.665190        18.1007 
 135   0.0000       0.675652        18.3854 
 136   0.0000       0.681303        18.5392 
 137   0.0000       0.705341        19.1933 
 138   0.0000       0.715817        19.4784 
 139   0.0000       0.733073        19.9479 
 140   0.0000       0.741516        20.1777 
 141   0.0000       0.762708        20.7543 
 142   0.0000       0.765069        20.8186 
 143   0.0000       0.777348        21.1527 
 144   0.0000       0.787087        21.4177 
 145   0.0000       0.790477        21.5100 
 146   0.0000       0.807443        21.9716 
 147   0.0000       0.818661        22.2769 
 148   0.0000       0.841550        22.8997 
 149   0.0000       0.843970        22.9656 
 150   0.0000       0.852200        23.1895 
 151   0.0000       0.857854        23.3434 
 152   0.0000       0.878818        23.9138 
 153   0.0000       0.889626        24.2080 
 154   0.0000       0.898261        24.4429 
 155   0.0000       0.904251        24.6059 
 156   0.0000       0.912280        24.8244 
 157   0.0000       0.923856        25.1394 
 158   0.0000       0.929624        25.2963 
 159   0.0000       0.939353        25.5611 
 160   0.0000       0.943156        25.6646 
 161   0.0000       0.947236        25.7756 
 162   0.0000       0.962988        26.2042 
 163   0.0000       0.980323        26.6759 
 164   0.0000       0.982772        26.7426 
 165   0.0000       0.987361        26.8674 
 166   0.0000       0.994296        27.0562 
 167   0.0000       1.007298        27.4100 
 168   0.0000       1.026997        27.9460 
 169   0.0000       1.029867        28.0241 
 170   0.0000       1.033287        28.1172 
 171   0.0000       1.039540        28.2873 
 172   0.0000       1.061578        28.8870 
 173   0.0000       1.072939        29.1962 
 174   0.0000       1.085506        29.5381 
 175   0.0000       1.096942        29.8493 
 176   0.0000       1.106740        30.1159 
 177   0.0000       1.116967        30.3942 
 178   0.0000       1.136913        30.9370 
 179   0.0000       1.138264        30.9737 
 180   0.0000       1.154629        31.4191 
 181   0.0000       1.174868        31.9698 
 182   0.0000       1.178483        32.0682 
 183   0.0000       1.191076        32.4108 
 184   0.0000       1.198335        32.6083 
 185   0.0000       1.205853        32.8129 
 186   0.0000       1.226961        33.3873 
 187   0.0000       1.234520        33.5930 
 188   0.0000       1.240284        33.7498 
 189   0.0000       1.258687        34.2506 
 190   0.0000       1.260573        34.3019 
 191   0.0000       1.281658        34.8757 
 192   0.0000       1.299529        35.3620 
 193   0.0000       1.307840        35.5881 
 194   0.0000       1.321126        35.9497 
 195   0.0000       1.326536        36.0969 
 196   0.0000       1.346319        36.6352 
 197   0.0000       1.349849        36.7313 
 198   0.0000       1.354094        36.8468 
 199   0.0000       1.373957        37.3873 
 200   0.0000       1.389831        37.8192 
 201   0.0000       1.401772        38.1442 
 202   0.0000       1.405112        38.2350 
 203   0.0000       1.409199        38.3463 
 204   0.0000       1.420049        38.6415 
 205   0.0000       1.429643        38.9026 
 206   0.0000       1.446041        39.3488 
 207   0.0000       1.448891        39.4263 
 208   0.0000       1.452047        39.5122 
 209   0.0000       1.466276        39.8994 
 210   0.0000       1.482419        40.3387 
 211   0.0000       1.496006        40.7084 
 212   0.0000       1.511158        41.1207 
 213   0.0000       1.527660        41.5697 
 214   0.0000       1.530265        41.6406 
 215   0.0000       1.542376        41.9702 
 216   0.0000       1.559419        42.4339 
 217   0.0000       1.574554        42.8458 
 218   0.0000       1.587803        43.2063 
 219   0.0000       1.593647        43.3653 
 220   0.0000       1.612088        43.8672 
 221   0.0000       1.637668        44.5632 
 222   0.0000       1.646660        44.8079 
 223   0.0000       1.655529        45.0492 
 224   0.0000       1.668755        45.4091 
 225   0.0000       1.672470        45.5102 
 226   0.0000       1.691263        46.0216 
 227   0.0000       1.701308        46.2949 
 228   0.0000       1.706167        46.4272 
 229   0.0000       1.742923        47.4273 
 230   0.0000       1.761797        47.9409 
 231   0.0000       1.784432        48.5569 
 232   0.0000       1.788275        48.6614 
 233   0.0000       1.790618        48.7252 
 234   0.0000       1.826261        49.6951 
 235   0.0000       1.854668        50.4681 
 236   0.0000       1.864647        50.7396 
 237   0.0000       1.871957        50.9386 
 238   0.0000       1.897657        51.6379 
 239   0.0000       1.910417        51.9851 
 240   0.0000       1.934593        52.6430 
 241   0.0000       1.945794        52.9477 
 242   0.0000       1.955871        53.2220 
 243   0.0000       1.977706        53.8161 
 244   0.0000       1.990535        54.1652 
 245   0.0000       2.008205        54.6460 
 246   0.0000       2.032014        55.2939 
 247   0.0000       2.056662        55.9646 
 248   0.0000       2.075066        56.4654 
 249   0.0000       2.078351        56.5548 
 250   0.0000       2.102419        57.2097 
 251   0.0000       2.127766        57.8995 
 252   0.0000       2.133834        58.0646 
 253   0.0000       2.147588        58.4388 
 254   0.0000       2.187157        59.5156 
 255   0.0000       2.216421        60.3119 
 256   0.0000       2.223270        60.4983 
 257   0.0000       2.233262        60.7701 
 258   0.0000       2.257010        61.4164 
 259   0.0000       2.264568        61.6220 
 260   0.0000       2.271457        61.8095 
 261   0.0000       2.293333        62.4048 
 262   0.0000       2.339280        63.6551 
 263   0.0000       2.346810        63.8599 
 264   0.0000       2.355474        64.0957 
 265   0.0000       2.361120        64.2493 
 266   0.0000       2.413127        65.6645 
 267   0.0000       2.437389        66.3247 
 268   0.0000       2.452854        66.7456 
 269   0.0000       2.460788        66.9614 
 270   0.0000       2.524064        68.6833 
 271   0.0000       2.532149        68.9033 
 272   0.0000       2.538985        69.0893 
 273   0.0000       2.548703        69.3537 
 274   0.0000       2.559319        69.6426 
 275   0.0000       2.565894        69.8215 
 276   0.0000       2.574313        70.0506 
 277   0.0000       2.583895        70.3113 
 278   0.0000       2.598838        70.7180 
 279   0.0000       2.620874        71.3176 
 280   0.0000       2.639180        71.8157 
 281   0.0000       2.649951        72.1088 
 282   0.0000       2.656185        72.2785 
 283   0.0000       2.666225        72.5517 
 284   0.0000       2.682658        72.9988 
 285   0.0000       2.692654        73.2708 
 286   0.0000       2.713264        73.8317 
 287   0.0000       2.738300        74.5129 
 288   0.0000       2.745692        74.7141 
 289   0.0000       2.759474        75.0891 
 290   0.0000       2.775657        75.5295 
 291   0.0000       2.783646        75.7469 
 292   0.0000       2.790731        75.9396 
 293   0.0000       2.800773        76.2129 
 294   0.0000       2.804670        76.3189 
 295   0.0000       2.817165        76.6590 
 296   0.0000       2.829092        76.9835 
 297   0.0000       2.835272        77.1517 
 298   0.0000       2.842277        77.3423 
 299   0.0000       2.859844        77.8203 
 300   0.0000       2.867574        78.0307 
 301   0.0000       2.880050        78.3701 
 302   0.0000       2.898613        78.8753 
 303   0.0000       2.900669        78.9312 
 304   0.0000       2.921233        79.4908 
 305   0.0000       2.929098        79.7048 
 306   0.0000       2.937868        79.9435 
 307   0.0000       2.942668        80.0741 
 308   0.0000       2.951273        80.3082 
 309   0.0000       2.955483        80.4228 
 310   0.0000       2.966822        80.7313 
 311   0.0000       2.980617        81.1067 
 312   0.0000       2.996811        81.5474 
 313   0.0000       3.020183        82.1834 
 314   0.0000       3.027642        82.3863 
 315   0.0000       3.041060        82.7515 
 316   0.0000       3.053575        83.0920 
 317   0.0000       3.059247        83.2463 
 318   0.0000       3.071143        83.5701 
 319   0.0000       3.078105        83.7595 
 320   0.0000       3.079541        83.7986 
 321   0.0000       3.101555        84.3976 
 322   0.0000       3.109457        84.6126 
 323   0.0000       3.117319        84.8266 
 324   0.0000       3.125073        85.0375 
 325   0.0000       3.130419        85.1830 
 326   0.0000       3.147950        85.6601 
 327   0.0000       3.150300        85.7240 
 328   0.0000       3.157852        85.9295 
 329   0.0000       3.171576        86.3030 
 330   0.0000       3.184068        86.6429 
 331   0.0000       3.192462        86.8713 
 332   0.0000       3.200957        87.1025 
 333   0.0000       3.203698        87.1771 
 334   0.0000       3.220000        87.6207 
 335   0.0000       3.223448        87.7145 
 336   0.0000       3.228574        87.8540 
 337   0.0000       3.237744        88.1035 
 338   0.0000       3.249626        88.4268 
 339   0.0000       3.267783        88.9209 
 340   0.0000       3.278153        89.2031 
 341   0.0000       3.303388        89.8898 
 342   0.0000       3.310816        90.0919 
 343   0.0000       3.322458        90.4087 
 344   0.0000       3.329408        90.5978 
 345   0.0000       3.335971        90.7764 
 346   0.0000       3.346265        91.0565 
 347   0.0000       3.362608        91.5012 
 348   0.0000       3.370873        91.7261 
 349   0.0000       3.377802        91.9147 
 350   0.0000       3.384853        92.1065 
 351   0.0000       3.402638        92.5905 
 352   0.0000       3.408095        92.7390 
 353   0.0000       3.417726        93.0010 
 354   0.0000       3.443948        93.7146 
 355   0.0000       3.453895        93.9852 
 356   0.0000       3.461916        94.2035 
 357   0.0000       3.475829        94.5821 
 358   0.0000       3.480154        94.6998 
 359   0.0000       3.493161        95.0538 
 360   0.0000       3.509053        95.4862 
 361   0.0000       3.525646        95.9377 
 362   0.0000       3.533505        96.1516 
 363   0.0000       3.544789        96.4586 
 364   0.0000       3.550064        96.6021 
 365   0.0000       3.551573        96.6432 
 366   0.0000       3.568899        97.1147 
 367   0.0000       3.575873        97.3044 
 368   0.0000       3.594135        97.8014 
 369   0.0000       3.608675        98.1970 
 370   0.0000       3.626261        98.6756 
 371   0.0000       3.638753        99.0155 
 372   0.0000       3.652769        99.3969 
 373   0.0000       3.670371        99.8759 
 374   0.0000       3.680250       100.1447 
 375   0.0000       3.687105       100.3312 
 376   0.0000       3.701592       100.7254 
 377   0.0000       3.702330       100.7455 
 378   0.0000       3.711335       100.9906 
 379   0.0000       3.738405       101.7272 
 380   0.0000       3.749097       102.0181 
 381   0.0000       3.762633       102.3865 
 382   0.0000       3.767015       102.5057 
 383   0.0000       3.779665       102.8499 
 384   0.0000       3.789550       103.1189 
 385   0.0000       3.801098       103.4331 
 386   0.0000       3.806232       103.5728 
 387   0.0000       3.820462       103.9601 
 388   0.0000       3.839962       104.4907 
 389   0.0000       3.853095       104.8480 
 390   0.0000       3.856321       104.9358 
 391   0.0000       3.882035       105.6356 
 392   0.0000       3.897748       106.0631 
 393   0.0000       3.919621       106.6583 
 394   0.0000       3.930788       106.9622 
 395   0.0000       3.950021       107.4855 
 396   0.0000       3.966232       107.9267 
 397   0.0000       3.981834       108.3512 
 398   0.0000       3.996386       108.7472 
 399   0.0000       4.003627       108.9442 
 400   0.0000       4.008864       109.0867 
 401   0.0000       4.021334       109.4261 
 402   0.0000       4.023539       109.4861 
 403   0.0000       4.029057       109.6362 
 404   0.0000       4.033758       109.7641 
 405   0.0000       4.045897       110.0944 
 406   0.0000       4.058100       110.4265 
 407   0.0000       4.076104       110.9164 
 408   0.0000       4.086538       111.2004 
 409   0.0000       4.107126       111.7606 
 410   0.0000       4.124790       112.2412 
 411   0.0000       4.135609       112.5356 
 412   0.0000       4.156544       113.1053 
 413   0.0000       4.166068       113.3645 
 414   0.0000       4.188226       113.9674 
 415   0.0000       4.194436       114.1364 
 416   0.0000       4.203163       114.3739 
 417   0.0000       4.218416       114.7889 
 418   0.0000       4.227591       115.0386 
 419   0.0000       4.232684       115.1772 
 420   0.0000       4.252898       115.7272 
 421   0.0000       4.257437       115.8507 
 422   0.0000       4.272862       116.2705 
 423   0.0000       4.285347       116.6102 
 424   0.0000       4.308064       117.2284 
 425   0.0000       4.330605       117.8418 
 426   0.0000       4.332724       117.8994 
 427   0.0000       4.356367       118.5428 
 428   0.0000       4.375767       119.0707 
 429   0.0000       4.402637       119.8018 
 430   0.0000       4.426680       120.4561 
 431   0.0000       4.444248       120.9341 
 432   0.0000       4.456980       121.2806 
 433   0.0000       4.461935       121.4154 
 434   0.0000       4.497975       122.3961 
 435   0.0000       4.509840       122.7190 
 436   0.0000       4.526158       123.1630 
 437   0.0000       4.549196       123.7899 
 438   0.0000       4.567042       124.2755 
 439   0.0000       4.604933       125.3066 
 440   0.0000       4.618071       125.6641 
 441   0.0000       4.628076       125.9363 
 442   0.0000       4.633970       126.0967 
 443   0.0000       4.655568       126.6844 
 444   0.0000       4.669421       127.0614 
 445   0.0000       4.685189       127.4905 
 446   0.0000       4.705201       128.0350 
 447   0.0000       4.733401       128.8024 
 448   0.0000       4.744267       129.0981 
 449   0.0000       4.748524       129.2139 
 450   0.0000       4.762279       129.5882 
 451   0.0000       4.787136       130.2646 
 452   0.0000       4.807082       130.8074 
 453   0.0000       4.824369       131.2777 
 454   0.0000       4.831663       131.4762 
 455   0.0000       4.852885       132.0537 
 456   0.0000       4.860115       132.2504 
 457   0.0000       4.879325       132.7732 
 458   0.0000       4.918128       133.8291 
 459   0.0000       4.928214       134.1035 
 460   0.0000       4.935921       134.3132 
 461   0.0000       4.966631       135.1489 
 462   0.0000       4.974066       135.3512 
 463   0.0000       4.986294       135.6840 
 464   0.0000       5.021696       136.6473 
 465   0.0000       5.027446       136.8038 
 466   0.0000       5.037317       137.0724 
 467   0.0000       5.055451       137.5658 
 468   0.0000       5.091396       138.5439 
 469   0.0000       5.130503       139.6081 
 470   0.0000       5.137840       139.8077 
 471   0.0000       5.152985       140.2198 
 472   0.0000       5.171312       140.7186 
 473   0.0000       5.177025       140.8740 
 474   0.0000       5.196570       141.4058 
 475   0.0000       5.215946       141.9331 
 476   0.0000       5.225395       142.1902 
 477   0.0000       5.241941       142.6405 
 478   0.0000       5.253952       142.9673 
 479   0.0000       5.262757       143.2069 
 480   0.0000       5.277160       143.5988 
 481   0.0000       5.290515       143.9622 
 482   0.0000       5.296457       144.1239 
 483   0.0000       5.338577       145.2701 
 484   0.0000       5.353211       145.6683 
 485   0.0000       5.356411       145.7554 
 486   0.0000       5.373140       146.2106 
 487   0.0000       5.382283       146.4594 
 488   0.0000       5.395195       146.8107 
 489   0.0000       5.432874       147.8360 
 490   0.0000       5.443180       148.1165 
 491   0.0000       5.457577       148.5082 
 492   0.0000       5.462557       148.6437 
 493   0.0000       5.475207       148.9880 
 494   0.0000       5.490308       149.3989 
 495   0.0000       5.518903       150.1770 
 496   0.0000       5.548956       150.9948 
 497   0.0000       5.568409       151.5241 
 498   0.0000       5.573151       151.6532 
 499   0.0000       5.593196       152.1986 
 500   0.0000       5.617574       152.8620 
 501   0.0000       5.618991       152.9005 
 502   0.0000       5.629291       153.1808 
 503   0.0000       5.645943       153.6339 
 504   0.0000       5.662895       154.0952 
 505   0.0000       5.680255       154.5676 
 506   0.0000       5.688553       154.7934 
 507   0.0000       5.751077       156.4948 
 508   0.0000       5.758080       156.6853 
 509   0.0000       5.772245       157.0708 
 510   0.0000       5.809649       158.0886 
 511   0.0000       5.814281       158.2146 
 512   0.0000       5.843389       159.0067 
 513   0.0000       5.940305       161.6439 
 514   0.0000       5.942419       161.7014 
 515   0.0000       5.955175       162.0485 
 516   0.0000       5.967268       162.3776 
 517   0.0000       5.989245       162.9756 
 518   0.0000       6.031509       164.1257 
 519   0.0000       6.063197       164.9880 
 520   0.0000       6.092164       165.7762 
 521   0.0000       6.144346       167.1962 
 522   0.0000       6.152737       167.4245 
 523   0.0000       6.156177       167.5181 
 524   0.0000       6.294579       171.2842 
 525   0.0000       6.309567       171.6920 
 526   0.0000       6.333930       172.3550 
 527   0.0000       6.337949       172.4644 
 528   0.0000       6.352307       172.8551 
 529   0.0000       6.368696       173.3010 
 530   0.0000       6.397804       174.0931 
 531   0.0000       6.425704       174.8523 
 532   0.0000       6.445966       175.4036 
 533   0.0000       6.474192       176.1717 
 534   0.0000       6.492688       176.6750 
 535   0.0000       6.523915       177.5247 
 536   0.0000       6.573773       178.8815 
 537   0.0000       6.580636       179.0682 
 538   0.0000       6.594631       179.4490 
 539   0.0000       6.685224       181.9142 
 540   0.0000       6.710369       182.5984 
 541   0.0000       6.734168       183.2460 
 542   0.0000       6.765713       184.1044 
 543   0.0000       6.766604       184.1287 
 544   0.0000       6.774017       184.3304 
 545   0.0000       6.816390       185.4834 
 546   0.0000       6.833659       185.9533 
 547   0.0000       6.852424       186.4639 
 548   0.0000       6.864722       186.7986 
 549   0.0000       6.941527       188.8885 
 550   0.0000       7.080298       192.6647 
 551   0.0000       7.106416       193.3754 
 552   0.0000       7.172748       195.1804 
 553   0.0000       7.208216       196.1455 
 554   0.0000       7.241463       197.0502 
 555   0.0000       7.246109       197.1767 
 556   0.0000       7.430034       202.1815 
 557   0.0000       7.495051       203.9507 
 558   0.0000      23.111738       628.9024 
 559   0.0000      23.187737       630.9704 
 560   0.0000      23.254437       632.7854 
 561   0.0000      23.292477       633.8205 
 562   0.0000      23.376078       636.0954 
 563   0.0000      23.418275       637.2436 
 564   0.0000      32.660818       888.7460 
 565   0.0000      32.926210       895.9677 
 566   0.0000      32.991995       897.7578 
 567   0.0000      43.831719      1192.7217 
 568   0.0000      43.854688      1193.3467 
 569   0.0000      43.873685      1193.8637 
 570   0.0000      43.890170      1194.3122 

                    ********************************
                    * MULLIKEN POPULATION ANALYSIS *
                    ********************************

-----------------------
MULLIKEN ATOMIC CHARGES
-----------------------
   0 N :   -0.194852
   1 H :    0.189830
   2 C :   -0.070965
   3 C :    0.290626
   4 H :    0.139999
   5 H :    0.145085
   6 O :   -0.284534
   7 C :    0.301688
   8 C :   -0.115676
   9 O :   -0.396854
  10 N :   -0.173852
  11 H :    0.147199
  12 H :    0.146156
  13 H :    0.203750
  14 C :    0.274035
  15 C :   -0.154056
  16 O :   -0.357931
  17 H :    0.169883
  18 H :    0.169764
  19 O :   -0.292358
  20 H :    0.246391
  21 N :   -0.095705
  22 H :    0.236804
  23 H :    0.238807
  24 H :    0.236768
Sum of atomic charges:    1.0000000

--------------------------------
MULLIKEN REDUCED ORBITAL CHARGES
--------------------------------
  0 N s       :     3.414313  s :     3.414313
      pz      :     1.605620  p :     3.719264
      px      :     1.046657
      py      :     1.066988
      dz2     :     0.005265  d :     0.057462
      dxz     :     0.012240
      dyz     :     0.003839
      dx2y2   :     0.018780
      dxy     :     0.017339
      f0      :     0.000704  f :     0.003812
      f+1     :     0.000649
      f-1     :     0.000460
      f+2     :     0.000205
      f-2     :     0.000312
      f+3     :     0.000772
      f-3     :     0.000711
  1 H s       :     0.745172  s :     0.745172
      pz      :     0.024891  p :     0.059726
      px      :     0.013164
      py      :     0.021671
      dz2     :     0.000403  d :     0.005272
      dxz     :     0.000109
      dyz     :     0.002159
      dx2y2   :     0.001175
      dxy     :     0.001425
  2 C s       :     3.164691  s :     3.164691
      pz      :     0.951411  p :     2.792924
      px      :     0.753960
      py      :     1.087552
      dz2     :     0.014094  d :     0.105592
      dxz     :     0.038485
      dyz     :     0.011892
      dx2y2   :     0.024215
      dxy     :     0.016907
      f0      :     0.001543  f :     0.007759
      f+1     :     0.001316
      f-1     :     0.000590
      f+2     :     0.001352
      f-2     :     0.000628
      f+3     :     0.001167
      f-3     :     0.001164
  3 C s       :     3.066843  s :     3.066843
      pz      :     0.840754  p :     2.351358
      px      :     0.771628
      py      :     0.738976
      dz2     :     0.042864  d :     0.267795
      dxz     :     0.097158
      dyz     :     0.023447
      dx2y2   :     0.038887
      dxy     :     0.065439
      f0      :     0.003656  f :     0.023378
      f+1     :     0.004195
      f-1     :     0.001468
      f+2     :     0.004991
      f-2     :     0.002556
      f+3     :     0.002877
      f-3     :     0.003633
  4 H s       :     0.821477  s :     0.821477
      pz      :     0.008381  p :     0.036387
      px      :     0.009196
      py      :     0.018810
      dz2     :     0.000200  d :     0.002137
      dxz     :     0.000038
      dyz     :     0.000684
      dx2y2   :     0.000368
      dxy     :     0.000846
  5 H s       :     0.820525  s :     0.820525
      pz      :     0.011526  p :     0.032348
      px      :     0.009305
      py      :     0.011517
      dz2     :     0.000662  d :     0.002042
      dxz     :     0.000295
      dyz     :     0.000284
      dx2y2   :     0.000551
      dxy     :     0.000250
  6 O s       :     3.798623  s :     3.798623
      pz      :     1.708288  p :     4.451339
      px      :     1.331201
      py      :     1.411850
      dz2     :     0.003429  d :     0.032664
      dxz     :     0.008482
      dyz     :     0.000821
      dx2y2   :     0.008919
      dxy     :     0.011013
      f0      :     0.000225  f :     0.001908
      f+1     :     0.000331
      f-1     :     0.000057
      f+2     :     0.000295
      f-2     :     0.000111
      f+3     :     0.000387
      f-3     :     0.000502
  7 C s       :     3.066150  s :     3.066150
[...]
     53       0.630138  -0.005188   0.000152   0.620634   0.000726   0.004633
     54       0.161418  -0.000889   0.000038  -0.160334   0.001644  -0.002815
     55       0.439981  -0.003093   0.000089  -0.452739   0.001339   0.002449
     56      -0.525806   0.003263  -0.000103   0.515344  -0.000356  -0.004442
     57      -0.000002   0.000016   0.000114   0.000002  -0.000042  -0.000003
     58       0.000001  -0.000001  -0.000084  -0.000000  -0.000037  -0.000000
     59       0.000003  -0.000029  -0.000186  -0.000001  -0.000034   0.000019
     60      -0.000044  -0.000032   0.000407  -0.000014   0.000687  -0.000101
     61      -0.000012   0.000044  -0.000737   0.000008   0.000345  -0.000035
     62      -0.000062  -0.000032  -0.000115  -0.000005   0.001199  -0.000261
     63       0.000729  -0.000006  -0.000001  -0.000055  -0.005543   0.048565
     64      -0.000420  -0.000011  -0.000007  -0.000312   0.003145  -0.033010
     65      -0.000029  -0.000003  -0.000001   0.002391   0.000248  -0.002853
     66       0.001359  -0.000030   0.000014   0.000862   0.039854  -0.342906
     67      -0.001210  -0.000036  -0.000006  -0.004819  -0.016559   0.142537
     68      -0.005380   0.000086  -0.000030  -0.010959  -0.068817   0.592322
     69       0.007341  -0.000096  -0.000015  -0.000042  -0.004698   0.013200
     70       0.024862   0.000012   0.000133   0.000045   0.007765   0.025305
     71       0.003356   0.000232   0.000016  -0.000908   0.000900   0.003582
     72       0.001099  -0.000015   0.000018  -0.000386   0.036895  -0.317728
     73      -0.002461   0.000040  -0.000015   0.007496  -0.033774   0.290999
     74       0.004891   0.000020   0.000033  -0.009542   0.064504  -0.555601
                 72         73         74    
      0      -0.000002   0.019455   0.000231
      1      -0.000002   0.070990   0.000043
      2      -0.000003   0.001836   0.000164
      3       0.000010  -0.268678  -0.000558
      4       0.000034  -0.960205  -0.001429
      5       0.000032  -0.012712  -0.000236
      6       0.000002  -0.001399  -0.000117
      7       0.000000   0.000393   0.000009
      8      -0.000000  -0.000506   0.000436
      9      -0.000006  -0.000018   0.000367
     10      -0.000003   0.000008   0.000289
     11       0.000012  -0.000079  -0.002750
     12      -0.000003  -0.004469   0.000493
     13      -0.000003  -0.007705   0.000385
     14       0.000008   0.002949  -0.000358
     15      -0.000004   0.004577   0.000718
     16      -0.000004  -0.004422  -0.000536
     17       0.000003  -0.001641  -0.000526
     18       0.000002  -0.000051  -0.000867
     19       0.000001   0.000001  -0.000328
     20      -0.000003  -0.000018   0.000204
     21       0.000001   0.001628  -0.000135
     22      -0.000001  -0.000060   0.000087
     23       0.000003  -0.000375   0.000029
     24       0.000000  -0.000194  -0.000006
     25      -0.000001   0.000198   0.000024
     26       0.000001   0.000015  -0.000002
     27      -0.000000   0.000022   0.000046
     28       0.000001  -0.001159  -0.000041
     29      -0.000004  -0.000185   0.000013
     30      -0.000002   0.000460   0.000113
     31       0.000002   0.000576   0.000070
     32      -0.000032   0.000088   0.000010
     33       0.000029  -0.000158   0.000026
     34      -0.000007  -0.000640  -0.000105
     35       0.000031  -0.000105  -0.000097
     36      -0.000029  -0.000096  -0.000004
     37       0.000007  -0.001550  -0.000107
     38       0.000024   0.000499   0.000034
     39       0.000024  -0.005479  -0.000930
     40       0.000031  -0.007686  -0.000971
     41       0.000057  -0.001043  -0.000124
     42      -0.000003  -0.000193  -0.000091
     43       0.000009  -0.000075  -0.000013
     44      -0.000067  -0.000012  -0.000002
     45       0.000016  -0.000004  -0.000004
     46       0.000125  -0.000006  -0.000006
     47      -0.000970  -0.000002  -0.000000
     48      -0.000002   0.000053   0.000032
     49       0.000000   0.000048   0.000014
     50       0.000011   0.000007   0.000001
     51       0.002951   0.000008   0.000022
     52       0.004843   0.000024   0.000020
     53       0.010510   0.000062   0.000050
     54      -0.003367   0.000005   0.000014
     55      -0.007325   0.000046   0.000028
     56       0.008684  -0.000050  -0.000026
     57       0.000008   0.000014  -0.023936
     58       0.000002   0.000022  -0.005761
     59       0.000001   0.000071  -0.056219
     60      -0.000082  -0.000899   0.387737
     61      -0.000008  -0.000468   0.093570
     62      -0.000103  -0.001297   0.914944
     63       0.002071   0.000060   0.000028
     64       0.010337  -0.000047  -0.000031
     65      -0.081441  -0.000007  -0.000013
     66      -0.356114  -0.000359  -0.000188
     67       0.155871   0.000125   0.000073
     68       0.590129   0.000602   0.000326
     69       0.000264  -0.000161  -0.000139
     70       0.001334   0.000232   0.000290
     71      -0.009482   0.000029   0.000047
     72       0.327365  -0.000313  -0.000106
     73      -0.300005   0.000256   0.000087
     74       0.544375  -0.000529  -0.000164


-----------
IR SPECTRUM
-----------

 Mode   freq       eps      Int      T**2         TX        TY        TZ
       cm**-1   L/(mol*cm) km/mol    a.u.
----------------------------------------------------------------------------
  6:     22.06   0.000657    3.32  0.009293  ( 0.044944 -0.020070  0.082887)
  7:     26.60   0.000243    1.23  0.002854  (-0.046667  0.024688  0.008157)
  8:     43.74   0.000399    2.02  0.002846  ( 0.014573 -0.029198 -0.042209)
  9:     63.01   0.000723    3.65  0.003579  (-0.011138 -0.006713  0.058391)
 10:     74.81   0.000660    3.34  0.002754  (-0.001457  0.007355 -0.051937)
 11:     91.59   0.003601   18.20  0.012269  ( 0.095755  0.041881 -0.036682)
 12:     97.44   0.003868   19.55  0.012389  (-0.030155  0.001553 -0.107132)
 13:    182.35   0.001961    9.91  0.003355  ( 0.003473 -0.004909  0.057610)
 14:    225.00   0.000685    3.46  0.000951  ( 0.026104 -0.016378 -0.001003)
 15:    266.81   0.002184   11.04  0.002555  (-0.049634  0.007717 -0.005627)
 16:    292.41   0.000757    3.82  0.000808  ( 0.024957 -0.011335 -0.007498)
 17:    313.70   0.000020    0.10  0.000020  ( 0.000536 -0.000801  0.004360)
 18:    330.11   0.021561  108.96  0.020382  (-0.122592  0.072036  0.012822)
 19:    401.54   0.025933  131.05  0.020154  ( 0.114575 -0.083692  0.004724)
 20:    481.36   0.012350   62.41  0.008006  (-0.008363  0.035325  0.081783)
 21:    494.25   0.003488   17.63  0.002202  (-0.014188  0.005083 -0.044442)
 22:    510.90   0.003474   17.56  0.002122  (-0.001104 -0.045730 -0.005424)
 23:    563.56   0.004577   23.13  0.002535  ( 0.004880 -0.000360 -0.050108)
 24:    574.12   0.006190   31.28  0.003365  ( 0.030609 -0.004934  0.049026)
 25:    597.87   0.003602   18.20  0.001880  (-0.020234  0.009190  0.037231)
 26:    641.84   0.013422   67.83  0.006526  ( 0.055913 -0.026057 -0.052158)
 27:    673.53   0.016545   83.61  0.007666  (-0.028659  0.081003 -0.016816)
 28:    699.27   0.000960    4.85  0.000428  (-0.004114 -0.020222  0.001583)
 29:    732.75   0.010436   52.74  0.004444  ( 0.002868  0.006148 -0.066320)
 30:    746.15   0.000531    2.69  0.000222  ( 0.004763  0.013909 -0.002469)
 31:    864.99   0.002869   14.50  0.001035  ( 0.029986  0.006434 -0.009717)
 32:    891.45   0.001554    7.85  0.000544  (-0.008513  0.021710 -0.000314)
 33:    931.73   0.002188   11.06  0.000733  (-0.000351 -0.003425  0.026850)
 34:    975.38   0.015628   78.98  0.005000  ( 0.063068 -0.031974 -0.000253)
 35:   1018.90   0.000253    1.28  0.000078  (-0.004958  0.001894 -0.007026)
 36:   1028.94   0.000979    4.94  0.000297  ( 0.011966 -0.012388  0.000355)
 37:   1059.38   0.006348   32.08  0.001870  ( 0.034904 -0.024910 -0.005573)
 38:   1098.41   0.001881    9.51  0.000534  (-0.006353  0.020875  0.007637)
 39:   1114.33   0.000230    1.16  0.000065  ( 0.000526  0.000700 -0.007985)
 40:   1116.84   0.025948  131.13  0.007250  ( 0.058052 -0.062198 -0.003432)
 41:   1158.52   0.000321    1.62  0.000086  (-0.005906 -0.001927 -0.006916)
 42:   1200.96   0.038382  193.97  0.009973  ( 0.039385  0.037151 -0.083917)
 43:   1255.13   0.000993    5.02  0.000247  ( 0.011957  0.009805 -0.002797)
 44:   1257.58   0.000346    1.75  0.000086  (-0.004429  0.002882  0.007617)
 45:   1280.93   0.019272   97.39  0.004695  ( 0.068026  0.004600  0.006815)
 46:   1309.52   0.015409   77.87  0.003672  (-0.060128  0.006617 -0.003605)
 47:   1321.89   0.000735    3.72  0.000174  (-0.000454  0.001784 -0.013048)
 48:   1353.14   0.000313    1.58  0.000072  ( 0.000995  0.004889 -0.006874)
 49:   1376.45   0.004748   24.00  0.001077  ( 0.005777 -0.010512  0.030540)
 50:   1399.51   0.013648   68.97  0.003043  (-0.040519 -0.012315  0.035353)
 51:   1412.50   0.004812   24.32  0.001063  (-0.032146 -0.004037 -0.003654)
 52:   1428.21   0.097437  492.41  0.021290  ( 0.145375  0.010968  0.005980)
 53:   1462.02   0.001612    8.14  0.000344  (-0.003132  0.012278 -0.013543)
 54:   1501.01   0.016602   83.90  0.003452  ( 0.049401 -0.031677 -0.002755)
 55:   1505.79   0.003116   15.75  0.000646  ( 0.021440  0.013390  0.002621)
 56:   1585.20   0.116635  589.42  0.022961  (-0.130537  0.076782  0.005036)
 57:   1601.09   0.007724   39.03  0.001505  (-0.038738 -0.000018 -0.002198)
 58:   1650.68   0.004741   23.96  0.000896  ( 0.017880 -0.023901 -0.002301)
 59:   1666.71   0.006000   30.32  0.001123  (-0.001098 -0.003867  0.033275)
 60:   1783.98   0.055466  280.30  0.009702  ( 0.046107  0.086235  0.011840)
 61:   1795.29   0.061297  309.77  0.010655  (-0.099957  0.025750 -0.000507)
 62:   1878.38   0.067234  339.77  0.011170  (-0.099513 -0.033518 -0.011980)
 63:   2825.92   0.094616  478.15  0.010448  (-0.055636  0.085246  0.009285)
 64:   3090.21   0.001924    9.72  0.000194  (-0.011499  0.007878  0.000038)
 65:   3123.75   0.001069    5.40  0.000107  (-0.009416  0.003357 -0.002619)
 66:   3134.03   0.000884    4.46  0.000088  (-0.005781  0.007347  0.000754)
 67:   3136.53   0.000121    0.61  0.000012  (-0.000453  0.000090  0.003436)
 68:   3178.46   0.000103    0.52  0.000010  (-0.000914  0.003003 -0.000468)
 69:   3195.46   0.000301    1.52  0.000029  (-0.000105 -0.000713  0.005372)
 70:   3503.79   0.056766  286.87  0.005056  ( 0.068975  0.016730  0.004288)
 71:   3516.64   0.018831   95.17  0.001671  (-0.032999  0.024045  0.001996)
 72:   3578.10   0.020482  103.51  0.001786  (-0.001088 -0.005314  0.041916)
 73:   3675.44   0.011438   57.80  0.000971  ( 0.002325 -0.030983 -0.002407)
 74:   3802.33   0.020930  105.77  0.001718  ( 0.007307 -0.001670  0.040762)

* The epsilon (eps) is given for a Dirac delta lineshape.
** The dipole moment derivative (T) already includes vibrational overlap.

The first frequency considered to be a vibration is 6
The total number of vibrations considered is 69


--------------------------
THERMOCHEMISTRY AT 298.15K
--------------------------

Temperature         ... 298.15 K
Pressure            ... 1.00 atm
Total Mass          ... 190.18 AMU

Throughout the following assumptions are being made:
  (1) The electronic state is orbitally nondegenerate
  (2) There are no thermally accessible electronically excited states
  (3) Hindered rotations indicated by low frequency modes are not
      treated as such but are treated as vibrations and this may
      cause some error
  (4) All equations used are the standard statistical mechanics
      equations for an ideal gas
  (5) All vibrations are strictly harmonic

freq.      22.06  E(vib)   ...       0.56 
freq.      26.60  E(vib)   ...       0.56 
freq.      43.74  E(vib)   ...       0.53 
freq.      63.01  E(vib)   ...       0.51 
freq.      74.81  E(vib)   ...       0.49 
freq.      91.59  E(vib)   ...       0.47 
freq.      97.44  E(vib)   ...       0.46 
freq.     182.35  E(vib)   ...       0.37 
freq.     225.00  E(vib)   ...       0.33 
freq.     266.81  E(vib)   ...       0.29 
freq.     292.41  E(vib)   ...       0.27 
freq.     313.70  E(vib)   ...       0.25 
freq.     330.11  E(vib)   ...       0.24 
freq.     401.54  E(vib)   ...       0.19 
freq.     481.36  E(vib)   ...       0.15 
freq.     494.25  E(vib)   ...       0.14 
freq.     510.90  E(vib)   ...       0.14 
freq.     563.56  E(vib)   ...       0.11 
freq.     574.12  E(vib)   ...       0.11 
freq.     597.87  E(vib)   ...       0.10 
freq.     641.84  E(vib)   ...       0.09 
freq.     673.53  E(vib)   ...       0.08 
freq.     699.27  E(vib)   ...       0.07 
freq.     732.75  E(vib)   ...       0.06 
freq.     746.15  E(vib)   ...       0.06 
freq.     864.99  E(vib)   ...       0.04 
freq.     891.45  E(vib)   ...       0.03 
freq.     931.73  E(vib)   ...       0.03 
freq.     975.38  E(vib)   ...       0.03 
freq.    1018.90  E(vib)   ...       0.02 
freq.    1028.94  E(vib)   ...       0.02 
freq.    1059.38  E(vib)   ...       0.02 
freq.    1098.41  E(vib)   ...       0.02 
freq.    1114.33  E(vib)   ...       0.01 
freq.    1116.84  E(vib)   ...       0.01 
freq.    1158.52  E(vib)   ...       0.01 
freq.    1200.96  E(vib)   ...       0.01 
freq.    1255.13  E(vib)   ...       0.01 
freq.    1257.58  E(vib)   ...       0.01 
freq.    1280.93  E(vib)   ...       0.01 
freq.    1309.52  E(vib)   ...       0.01 
freq.    1321.89  E(vib)   ...       0.01 
freq.    1353.14  E(vib)   ...       0.01 
freq.    1376.45  E(vib)   ...       0.01 
freq.    1399.51  E(vib)   ...       0.00 
freq.    1412.50  E(vib)   ...       0.00 
freq.    1428.21  E(vib)   ...       0.00 
freq.    1462.02  E(vib)   ...       0.00 
freq.    1501.01  E(vib)   ...       0.00 
freq.    1505.79  E(vib)   ...       0.00 
freq.    1585.20  E(vib)   ...       0.00 
freq.    1601.09  E(vib)   ...       0.00 
freq.    1650.68  E(vib)   ...       0.00 
freq.    1666.71  E(vib)   ...       0.00 
freq.    1783.98  E(vib)   ...       0.00 
freq.    1795.29  E(vib)   ...       0.00 
freq.    1878.38  E(vib)   ...       0.00 
freq.    2825.92  E(vib)   ...       0.00 
freq.    3090.21  E(vib)   ...       0.00 
freq.    3123.75  E(vib)   ...       0.00 
freq.    3134.03  E(vib)   ...       0.00 
freq.    3136.53  E(vib)   ...       0.00 
freq.    3178.46  E(vib)   ...       0.00 
freq.    3195.46  E(vib)   ...       0.00 
freq.    3503.79  E(vib)   ...       0.00 
freq.    3516.64  E(vib)   ...       0.00 
freq.    3578.10  E(vib)   ...       0.00 
freq.    3675.44  E(vib)   ...       0.00 
freq.    3802.33  E(vib)   ...       0.00 

------------
INNER ENERGY
------------

The inner energy is: U= E(el) + E(ZPE) + E(vib) + E(rot) + E(trans)
    E(el)   - is the total energy from the electronic structure calculation
              = E(kin-el) + E(nuc-el) + E(el-el) + E(nuc-nuc)
    E(ZPE)  - the the zero temperature vibrational energy from the frequency calculation
    E(vib)  - the the finite temperature correction to E(ZPE) due to population
              of excited vibrational states
    E(rot)  - is the rotational thermal energy
    E(trans)- is the translational thermal energy

Summary of contributions to the inner energy U:
Electronic energy                ...   -701.34231572 Eh
Zero point energy                ...      0.20775128 Eh     130.37 kcal/mol
Thermal vibrational correction   ...      0.01112048 Eh       6.98 kcal/mol
Thermal rotational correction    ...      0.00141627 Eh       0.89 kcal/mol
Thermal translational correction ...      0.00141627 Eh       0.89 kcal/mol
-----------------------------------------------------------------------
Total thermal energy                   -701.12061142 Eh


Summary of corrections to the electronic energy:
(perhaps to be used in another calculation)
Total thermal correction                  0.01395302 Eh       8.76 kcal/mol
Non-thermal (ZPE) correction              0.20775128 Eh     130.37 kcal/mol
-----------------------------------------------------------------------
Total correction                          0.22170431 Eh     139.12 kcal/mol


--------
ENTHALPY
--------

The enthalpy is H = U + kB*T
                kB is Boltzmann's constant
Total free energy                 ...   -701.12061142 Eh 
Thermal Enthalpy correction       ...      0.00094421 Eh       0.59 kcal/mol
-----------------------------------------------------------------------
Total Enthalpy                    ...   -701.11966721 Eh


Note: Only C1 symmetry has been detected, increase convergence thresholds 
      if your molecule has a higher symmetry. Symmetry factor of 1.0 is   
      used for the rotational entropy correction. 
 

Note: Rotational entropy computed according to Herzberg 
Infrared and Raman Spectra, Chapter V,1, Van Nostrand Reinhold, 1945 
Point Group:  C1, Symmetry Number:   1  
Rotational constants in cm-1:     0.084580     0.008510     0.008379 

Vibrational entropy computed according to the QRRHO of S. Grimme
Chem.Eur.J. 2012 18 9955


-------
ENTROPY
-------

The entropy contributions are T*S = T*(S(el)+S(vib)+S(rot)+S(trans))
     S(el)   - electronic entropy
     S(vib)  - vibrational entropy
     S(rot)  - rotational entropy
     S(trans)- translational entropy
The entropies will be listed as multiplied by the temperature to get
units of energy

Electronic entropy                ...      0.00000000 Eh      0.00 kcal/mol
Vibrational entropy               ...      0.02031425 Eh     12.75 kcal/mol
Rotational entropy                ...      0.01518463 Eh      9.53 kcal/mol
Translational entropy             ...      0.01978162 Eh     12.41 kcal/mol
-----------------------------------------------------------------------
Final entropy term                ...      0.05528049 Eh     34.69 kcal/mol

In case the symmetry of your molecule has not been determined correctly
or in case you have a reason to use a different symmetry number we print 
out the resulting rotational entropy values for sn=1,12 :
 --------------------------------------------------------
|  sn= 1 | S(rot)=       0.01518463 Eh      9.53 kcal/mol|
|  sn= 2 | S(rot)=       0.01453017 Eh      9.12 kcal/mol|
|  sn= 3 | S(rot)=       0.01414734 Eh      8.88 kcal/mol|
|  sn= 4 | S(rot)=       0.01387571 Eh      8.71 kcal/mol|
|  sn= 5 | S(rot)=       0.01366503 Eh      8.57 kcal/mol|
|  sn= 6 | S(rot)=       0.01349288 Eh      8.47 kcal/mol|
|  sn= 7 | S(rot)=       0.01334734 Eh      8.38 kcal/mol|
|  sn= 8 | S(rot)=       0.01322126 Eh      8.30 kcal/mol|
|  sn= 9 | S(rot)=       0.01311005 Eh      8.23 kcal/mol|
|  sn=10 | S(rot)=       0.01301057 Eh      8.16 kcal/mol|
|  sn=11 | S(rot)=       0.01292058 Eh      8.11 kcal/mol|
|  sn=12 | S(rot)=       0.01283843 Eh      8.06 kcal/mol|
 --------------------------------------------------------


-------------------
GIBBS FREE ENERGY
-------------------

The Gibbs free energy is G = H - T*S

Total enthalpy                    ...   -701.11966721 Eh 
Total entropy correction          ...     -0.05528049 Eh    -34.69 kcal/mol
-----------------------------------------------------------------------
Final Gibbs free energy         ...   -701.17494770 Eh

For completeness - the Gibbs free energy minus the electronic energy
G-E(el)                           ...      0.16736803 Eh    105.02 kcal/mol


Timings for individual modules:

Sum of individual times         ...     8216.093 sec (= 136.935 min)
GTO integral calculation        ...       39.585 sec (=   0.660 min)   0.5 %
SCF iterations                  ...     3270.769 sec (=  54.513 min)  39.8 %
SCF Gradient evaluation         ...      670.203 sec (=  11.170 min)   8.2 %
Geometry relaxation             ...        1.621 sec (=   0.027 min)   0.0 %
Analytical frequency calculation...     3749.131 sec (=  62.486 min)  45.6 %
CHELPG charge generation        ...      484.784 sec (=   8.080 min)   5.9 %
                             ****ORCA TERMINATED NORMALLY****
TOTAL RUN TIME: 0 days 2 hours 17 minutes 37 seconds 24 msec
