
Lmod is automatically replacing "intel/2020.1.217" with "gcc/10.3.0".


Due to MODULEPATH changes, the following have been reloaded:
  1) blis/0.8.1     2) flexiblas/3.0.4

The following have been reloaded with a version change:
  1) gcccore/.9.3.0 => gcccore/.10.3.0        3) openmpi/4.0.3 => openmpi/4.1.1
  2) libfabric/1.10.1 => libfabric/1.12.1     4) ucx/1.8.0 => ucx/1.9.0

To execute ORCA, run: 
   ${EBROOTORCA}/orca orca.inp > orca.out

                                 *****************
                                 * O   R   C   A *
                                 *****************

                                            #,                                       
                                            ###                                      
                                            ####                                     
                                            #####                                    
                                            ######                                   
                                           ########,                                 
                                     ,,################,,,,,                         
                               ,,#################################,,                 
                          ,,##########################################,,             
                       ,#########################################, ''#####,          
                    ,#############################################,,   '####,        
                  ,##################################################,,,,####,       
                ,###########''''           ''''###############################       
              ,#####''   ,,,,##########,,,,          '''####'''          '####       
            ,##' ,,,,###########################,,,                        '##       
           ' ,,###''''                  '''############,,,                           
         ,,##''                                '''############,,,,        ,,,,,,###''
      ,#''                                            '''#######################'''  
     '                                                          ''''####''''         
             ,#######,   #######,   ,#######,      ##                                
            ,#'     '#,  ##    ##  ,#'     '#,    #''#        ######   ,####,        
            ##       ##  ##   ,#'  ##            #'  '#       #        #'  '#        
            ##       ##  #######   ##           ,######,      #####,   #    #        
            '#,     ,#'  ##    ##  '#,     ,#' ,#      #,         ##   #,  ,#        
             '#######'   ##     ##  '#######'  #'      '#     #####' # '####'        



                  #######################################################
                  #                        -***-                        #
                  #          Department of theory and spectroscopy      #
                  #    Directorship and core code : Frank Neese         #
                  #        Max Planck Institute fuer Kohlenforschung    #
                  #                Kaiser Wilhelm Platz 1               #
                  #                 D-45470 Muelheim/Ruhr               #
                  #                      Germany                        #
                  #                                                     #
                  #                  All rights reserved                #
                  #                        -***-                        #
                  #######################################################


                         Program Version 5.0.2 -  RELEASE  -


 With contributions from (in alphabetic order):
   Daniel Aravena         : Magnetic Suceptibility
   Michael Atanasov       : Ab Initio Ligand Field Theory (pilot matlab implementation)
   Alexander A. Auer      : GIAO ZORA, VPT2 properties, NMR spectrum
   Ute Becker             : Parallelization
   Giovanni Bistoni       : ED, misc. LED, open-shell LED, HFLD
   Martin Brehm           : Molecular dynamics
   Dmytro Bykov           : SCF Hessian
   Vijay G. Chilkuri      : MRCI spin determinant printing, contributions to CSF-ICE
   Dipayan Datta          : RHF DLPNO-CCSD density
   Achintya Kumar Dutta   : EOM-CC, STEOM-CC
   Dmitry Ganyushin       : Spin-Orbit,Spin-Spin,Magnetic field MRCI
   Miquel Garcia          : C-PCM and meta-GGA Hessian, CC/C-PCM, Gaussian charge scheme
   Yang Guo               : DLPNO-NEVPT2, F12-NEVPT2, CIM, IAO-localization
   Andreas Hansen         : Spin unrestricted coupled pair/coupled cluster methods
   Benjamin Helmich-Paris : MC-RPA, TRAH-SCF, COSX integrals
   Lee Huntington         : MR-EOM, pCC
   Robert Izsak           : Overlap fitted RIJCOSX, COSX-SCS-MP3, EOM
   Marcus Kettner         : VPT2
   Christian Kollmar      : KDIIS, OOCD, Brueckner-CCSD(T), CCSD density, CASPT2, CASPT2-K
   Simone Kossmann        : Meta GGA functionals, TD-DFT gradient, OOMP2, MP2 Hessian
   Martin Krupicka        : Initial AUTO-CI
   Lucas Lang             : DCDCAS
   Marvin Lechner         : AUTO-CI (C++ implementation), FIC-MRCC
   Dagmar Lenk            : GEPOL surface, SMD
   Dimitrios Liakos       : Extrapolation schemes; Compound Job, initial MDCI parallelization
   Dimitrios Manganas     : Further ROCIS development; embedding schemes
   Dimitrios Pantazis     : SARC Basis sets
   Anastasios Papadopoulos: AUTO-CI, single reference methods and gradients
   Taras Petrenko         : DFT Hessian,TD-DFT gradient, ASA, ECA, R-Raman, ABS, FL, XAS/XES, NRVS
   Peter Pinski           : DLPNO-MP2, DLPNO-MP2 Gradient
   Christoph Reimann      : Effective Core Potentials
   Marius Retegan         : Local ZFS, SOC
   Christoph Riplinger    : Optimizer, TS searches, QM/MM, DLPNO-CCSD(T), (RO)-DLPNO pert. Triples
   Tobias Risthaus        : Range-separated hybrids, TD-DFT gradient, RPA, STAB
   Michael Roemelt        : Original ROCIS implementation
   Masaaki Saitow         : Open-shell DLPNO-CCSD energy and density
   Barbara Sandhoefer     : DKH picture change effects
   Avijit Sen             : IP-ROCIS
   Kantharuban Sivalingam : CASSCF convergence, NEVPT2, FIC-MRCI
   Bernardo de Souza      : ESD, SOC TD-DFT
   Georgi Stoychev        : AutoAux, RI-MP2 NMR, DLPNO-MP2 response
   Willem Van den Heuvel  : Paramagnetic NMR
   Boris Wezisla          : Elementary symmetry handling
   Frank Wennmohs         : Technical directorship


 We gratefully acknowledge several colleagues who have allowed us to
 interface, adapt or use parts of their codes:
   Stefan Grimme, W. Hujo, H. Kruse, P. Pracht,  : VdW corrections, initial TS optimization,
                  C. Bannwarth, S. Ehlert          DFT functionals, gCP, sTDA/sTD-DF
   Ed Valeev, F. Pavosevic, A. Kumar             : LibInt (2-el integral package), F12 methods
   Garnet Chan, S. Sharma, J. Yang, R. Olivares  : DMRG
   Ulf Ekstrom                                   : XCFun DFT Library
   Mihaly Kallay                                 : mrcc  (arbitrary order and MRCC methods)
   Jiri Pittner, Ondrej Demel                    : Mk-CCSD
   Frank Weinhold                                : gennbo (NPA and NBO analysis)
   Christopher J. Cramer and Donald G. Truhlar   : smd solvation model
   Lars Goerigk                                  : TD-DFT with DH, B97 family of functionals
   V. Asgeirsson, H. Jonsson                     : NEB implementation
   FAccTs GmbH                                   : IRC, NEB, NEB-TS, DLPNO-Multilevel, CI-OPT
                                                   MM, QMMM, 2- and 3-layer-ONIOM, Crystal-QMMM,
                                                   LR-CPCM, SF, NACMEs, symmetry and pop. for TD-DFT,
                                                   nearIR, NL-DFT gradient (VV10), updates on ESD,
                                                   ML-optimized integration grids
   S Lehtola, MJT Oliveira, MAL Marques          : LibXC Library
   Liviu Ungur et al                             : ANISO software


 Your calculation uses the libint2 library for the computation of 2-el integrals
 For citations please refer to: http://libint.valeyev.net

 Your ORCA version has been built with support for libXC version: 5.1.0
 For citations please refer to: https://tddft.org/programs/libxc/

 This ORCA versions uses:
   CBLAS   interface :  Fast vector & matrix operations
   LAPACKE interface :  Fast linear algebra routines
   SCALAPACK package :  Parallel linear algebra routines
   Shared memory     :  Shared parallel matrices
   BLAS/LAPACK       :  OpenBLAS 0.3.15  USE64BITINT DYNAMIC_ARCH NO_AFFINITY Zen SINGLE_THREADED
        Core in use  :  Zen
   Copyright (c) 2011-2014, The OpenBLAS Project


Your calculation utilizes the atom-pairwise dispersion correction
with the Becke-Johnson damping scheme (D3BJ)
Cite in your paper:
S.Grimme, S.Ehrlich, L.Goerigk, J Comput Chem, (2011), 32, 1456–1465 
S.Grimme, J.Antony, S.Ehrlich and H.Krieg, J.Chem.Phys., 132, (2010), 154104 
   

================================================================================

----- Orbital basis set information -----
Your calculation utilizes the basis: def2-TZVPP
   F. Weigend and R. Ahlrichs, Phys. Chem. Chem. Phys. 7, 3297 (2005).

----- AuxJ basis set information -----
Your calculation utilizes the auxiliary basis: def2/J
   F. Weigend, Phys. Chem. Chem. Phys. 8, 1057 (2006).

================================================================================
                                        WARNINGS
                       Please study these warnings very carefully!
================================================================================


WARNING: Geometry Optimization
  ===> : Switching off AutoStart
         For restart on a previous wavefunction, please use MOREAD

INFO   : the flag for use of the SHARK integral package has been found!

================================================================================
                                       INPUT FILE
================================================================================
NAME = GGG-H_tt_005_OptFreq.inp
|  1> # GGG-H_tt_005 (old 025)
|  2> ! wB97X-D3BJ Opt Freq def2-TZVPP def2/J RIJCOSX VeryTightSCF
|  3> ! PAL8 defgrid3 VeryTightOpt
|  4> 
|  5> %maxcore 4096
|  6> 
|  7> %geom
|  8>   MaxIter 300
|  9>   # MaxStep 0.1
| 10>   Calc_Hess true
| 11>   Recalc_Hess 10
| 12> end
| 13> 
| 14> %chelpg
| 15>   grid 0.1
| 16>   rmax 3.0
| 17> end
| 18> 
| 19> * xyz 1 1 
| 20>  N   -3.281867   +1.525661   -0.016339
| 21>  H   -3.093818   +2.529245   -0.016921
| 22>  C   -4.682910   +1.114909   -0.025004
| 23>  C   -5.644980   +2.293413   -0.033029
| 24>  H   -4.900813   +0.490390   -0.910056
| 25>  H   -4.912841   +0.492732   +0.858583
| 26>  O   -6.845259   +2.176396   -0.037027
| 27>  C   -2.282872   +0.624955   -0.010449
| 28>  C   -0.843092   +1.185856   -0.000893
| 29>  O   -2.453931   -0.600025   -0.011574
| 30>  N   +0.000000   +0.000000   +0.000000
| 31>  H   -0.659060   +1.804277   +0.896078
| 32>  H   -0.648098   +1.810931   -0.890814
| 33>  H   -0.593208   -0.855901   -0.002521
| 34>  C   +1.322175   +0.000000   +0.000000
| 35>  C   +2.055975   -1.370672   +0.000394
| 36>  O   +2.058221   +1.010656   +0.000000
| 37>  H   +1.822096   -1.965892   -0.895070
| 38>  H   +1.823894   -1.963059   +0.898219
| 39>  O   -4.990872   +3.487786   -0.035461
| 40>  H   -5.673182   +4.193461   -0.040713
| 41>  N   +3.496163   -0.959971   -0.001359
| 42>  H   +4.017235   -1.256583   -0.837714
| 43>  H   +3.326865   +0.146862   -0.000634
| 44>  H   +4.018535   -1.255968   +0.834425
| 45> *
| 46> 
| 47>                          ****END OF INPUT****
================================================================================

                       *****************************
                       * Geometry Optimization Run *
                       *****************************

Geometry optimization settings:
Update method            Update   .... BFGS
Choice of coordinates    CoordSys .... Z-matrix Internals
Initial Hessian          InHess   .... Almoef's Model

Convergence Tolerances:
Energy Change            TolE     ....  2.0000e-07 Eh
Max. Gradient            TolMAXG  ....  3.0000e-05 Eh/bohr
RMS Gradient             TolRMSG  ....  8.0000e-06 Eh/bohr
Max. Displacement        TolMAXD  ....  2.0000e-04 bohr
RMS Displacement         TolRMSD  ....  1.0000e-04 bohr
Strict Convergence                ....  False
------------------------------------------------------------------------------
                        ORCA OPTIMIZATION COORDINATE SETUP
------------------------------------------------------------------------------

The optimization will be done in new redundant internal coordinates
Making redundant internal coordinates   ...  (new redundants) done
Evaluating the initial hessian          ...  (Is done on the fly) done
Evaluating the coordinates              ...  done
Calculating the B-matrix                .... done
Calculating the G-matrix                .... done
Diagonalizing the G-matrix              .... done
Small eigenvalue found = 3.983e-03
Small eigenvalue found = 1.861e-02
Small eigenvalue found = 1.980e-02
Small eigenvalue found = 2.963e-02
The first mode is                       ....   44
The number of degrees of freedom        ....   69

    -----------------------------------------------------------------
                    Redundant Internal Coordinates


    -----------------------------------------------------------------
         Definition                    Initial Value    d2E/dq (diagonal element)
    -----------------------------------------------------------------
      1. B(H   1,N   0)                  1.0211         0.000000   
      2. B(C   2,N   0)                  1.4600         0.000000   
      3. B(C   3,C   2)                  1.5214         0.000000   
      4. B(H   4,C   2)                  1.1049         0.000000   
      5. B(H   5,C   2)                  1.1049         0.000000   
      6. B(O   6,C   3)                  1.2060         0.000000   
      7. B(C   7,N   0)                  1.3451         0.000000   
      8. B(C   8,C   7)                  1.5452         0.000000   
      9. B(O   9,C   7)                  1.2369         0.000000   
     10. B(N  10,C   8)                  1.4550         0.000000   
     11. B(H  11,C   8)                  1.1049         0.000000   
     12. B(H  12,C   8)                  1.1049         0.000000   
     13. B(H  13,N  10)                  1.0414         0.000000   
     14. B(C  14,N  10)                  1.3222         0.000000   
     15. B(C  15,C  14)                  1.5547         0.000000   
     16. B(O  16,C  14)                  1.2503         0.000000   
     17. B(H  17,C  15)                  1.1004         0.000000   
     18. B(H  18,C  15)                  1.1004         0.000000   
     19. B(O  19,C   3)                  1.3618         0.000000   
     20. B(H  20,O  19)                  0.9816         0.000000   
     21. B(N  21,C  15)                  1.4976         0.000000   
     22. B(H  22,N  21)                  1.0291         0.000000   
     23. B(H  23,N  21)                  1.1197         0.000000   
     24. B(H  24,N  21)                  1.0291         0.000000   
     25. A(H   1,N   0,C   2)          116.9520         0.000000   
     26. A(C   2,N   0,C   7)          121.6227         0.000000   
     27. A(H   1,N   0,C   7)          121.4252         0.000000   
     28. A(C   3,C   2,H   5)          107.9893         0.000000   
     29. A(C   3,C   2,H   4)          107.9933         0.000000   
     30. A(N   0,C   2,H   4)          110.6717         0.000000   
     31. A(N   0,C   2,C   3)          112.8878         0.000000   
     32. A(N   0,C   2,H   5)          110.6942         0.000000   
     33. A(H   4,C   2,H   5)          106.3357         0.000000   
     34. A(O   6,C   3,O  19)          124.2752         0.000000   
     35. A(C   2,C   3,O  19)          112.0661         0.000000   
     36. A(C   2,C   3,O   6)          123.6586         0.000000   
     37. A(C   8,C   7,O   9)          119.2339         0.000000   
     38. A(N   0,C   7,O   9)          124.0880         0.000000   
     39. A(N   0,C   7,C   8)          116.6781         0.000000   
     40. A(C   7,C   8,H  11)          111.3077         0.000000   
     41. A(C   7,C   8,N  10)          104.1265         0.000000   
     42. A(H  11,C   8,H  12)          107.9282         0.000000   
     43. A(N  10,C   8,H  12)          111.0589         0.000000   
     44. A(C   7,C   8,H  12)          111.3972         0.000000   
     45. A(N  10,C   8,H  11)          111.0480         0.000000   
     46. A(H  13,N  10,C  14)          124.7249         0.000000   
     47. A(C   8,N  10,C  14)          125.4112         0.000000   
     48. A(C   8,N  10,H  13)          109.8636         0.000000   
     49. A(C  15,C  14,O  16)          115.7720         0.000000   
     50. A(N  10,C  14,O  16)          126.0653         0.000000   
     51. A(N  10,C  14,C  15)          118.1627         0.000000   
     52. A(H  17,C  15,H  18)          109.1439         0.000000   
     53. A(C  14,C  15,H  18)          112.0410         0.000000   
     54. A(C  14,C  15,H  17)          112.1084         0.000000   
     55. A(H  18,C  15,N  21)          110.5735         0.000000   
     56. A(H  17,C  15,N  21)          110.5964         0.000000   
     57. A(C  14,C  15,N  21)          102.2460         0.000000   
     58. A(C   3,O  19,H  20)          107.2570         0.000000   
     59. A(H  23,N  21,H  24)          111.1338         0.000000   
     60. A(H  22,N  21,H  24)          108.6710         0.000000   
     61. A(C  15,N  21,H  24)          114.0991         0.000000   
     62. A(H  22,N  21,H  23)          111.2234         0.000000   
     63. A(C  15,N  21,H  23)           97.2202         0.000000   
     64. A(C  15,N  21,H  22)          114.1324         0.000000   
     65. D(H   4,C   2,N   0,C   7)    -58.7252         0.000000   
     66. D(H   5,C   2,N   0,C   7)     58.9126         0.000000   
     67. D(H   5,C   2,N   0,H   1)   -121.2117         0.000000   
     68. D(H   4,C   2,N   0,H   1)    121.1505         0.000000   
     69. D(C   3,C   2,N   0,H   1)     -0.0250         0.000000   
     70. D(C   3,C   2,N   0,C   7)   -179.9008         0.000000   
     71. D(O   6,C   3,C   2,H   4)     57.5309         0.000000   
     72. D(O  19,C   3,C   2,H   5)    122.9388         0.000000   
     73. D(O  19,C   3,C   2,H   4)   -122.4542         0.000000   
     74. D(O   6,C   3,C   2,H   5)    -57.0761         0.000000   
     75. D(O  19,C   3,C   2,N   0)      0.2294         0.000000   
     76. D(O   6,C   3,C   2,N   0)   -179.7854         0.000000   
     77. D(O   9,C   7,N   0,H   1)   -179.8823         0.000000   
     78. D(C   8,C   7,N   0,C   2)   -179.9744         0.000000   
     79. D(C   8,C   7,N   0,H   1)      0.1555         0.000000   
     80. D(O   9,C   7,N   0,C   2)     -0.0121         0.000000   
     81. D(H  12,C   8,C   7,O   9)    119.9654         0.000000   
     82. D(H  12,C   8,C   7,N   0)    -60.0704         0.000000   
     83. D(H  11,C   8,C   7,O   9)   -119.5236         0.000000   
     84. D(N  10,C   8,C   7,O   9)      0.1915         0.000000   
     85. D(N  10,C   8,C   7,N   0)   -179.8443         0.000000   
     86. D(H  11,C   8,C   7,N   0)     60.4406         0.000000   
     87. D(C  14,N  10,C   8,H  12)     59.6159         0.000000   
     88. D(C  14,N  10,C   8,H  11)    -60.4908         0.000000   
     89. D(C  14,N  10,C   8,C   7)    179.6185         0.000000   
     90. D(H  13,N  10,C   8,H  12)   -120.1989         0.000000   
     91. D(H  13,N  10,C   8,H  11)    119.6944         0.000000   
     92. D(H  13,N  10,C   8,C   7)     -0.1964         0.000000   
     93. D(O  16,C  14,N  10,C   8)      0.0431         0.000000   
     94. D(C  15,C  14,N  10,H  13)     -0.1852         0.000000   
     95. D(C  15,C  14,N  10,C   8)   -179.9733         0.000000   
     96. D(O  16,C  14,N  10,H  13)    179.8312         0.000000   
     97. D(N  21,C  15,C  14,O  16)     -0.0788         0.000000   
     98. D(N  21,C  15,C  14,N  10)    179.9360         0.000000   
     99. D(H  18,C  15,C  14,O  16)    118.3338         0.000000   
    100. D(H  18,C  15,C  14,N  10)    -61.6514         0.000000   
    101. D(H  17,C  15,C  14,O  16)   -118.5498         0.000000   
    102. D(H  17,C  15,C  14,N  10)     61.4650         0.000000   
    103. D(H  20,O  19,C   3,O   6)      0.0104         0.000000   
    104. D(H  20,O  19,C   3,C   2)    179.9954         0.000000   
    105. D(H  24,N  21,C  15,H  18)     -2.3209         0.000000   
    106. D(H  24,N  21,C  15,H  17)   -123.3356         0.000000   
    107. D(H  24,N  21,C  15,C  14)    117.1272         0.000000   
    108. D(H  23,N  21,C  15,H  18)   -119.3728         0.000000   
    109. D(H  23,N  21,C  15,H  17)    119.6125         0.000000   
    110. D(H  23,N  21,C  15,C  14)      0.0753         0.000000   
    111. D(H  22,N  21,C  15,H  18)    123.4592         0.000000   
    112. D(H  22,N  21,C  15,H  17)      2.4446         0.000000   
    113. D(H  22,N  21,C  15,C  14)   -117.0926         0.000000   
    -----------------------------------------------------------------

Number of atoms                         .... 25
Number of degrees of freedom            .... 113

         *************************************************************
         *                GEOMETRY OPTIMIZATION CYCLE   1            *
         *************************************************************
---------------------------------
CARTESIAN COORDINATES (ANGSTROEM)
---------------------------------
  N     -3.281867    1.525661   -0.016339
  H     -3.093818    2.529245   -0.016921
  C     -4.682910    1.114909   -0.025004
  C     -5.644980    2.293413   -0.033029
  H     -4.900813    0.490390   -0.910056
  H     -4.912841    0.492732    0.858583
  O     -6.845259    2.176396   -0.037027
  C     -2.282872    0.624955   -0.010449
  C     -0.843092    1.185856   -0.000893
  O     -2.453931   -0.600025   -0.011574
  N      0.000000    0.000000    0.000000
  H     -0.659060    1.804277    0.896078
  H     -0.648098    1.810931   -0.890814
  H     -0.593208   -0.855901   -0.002521
  C      1.322175    0.000000    0.000000
  C      2.055975   -1.370672    0.000394
  O      2.058221    1.010656    0.000000
  H      1.822096   -1.965892   -0.895070
  H      1.823894   -1.963059    0.898219
  O     -4.990872    3.487786   -0.035461
  H     -5.673182    4.193461   -0.040713
  N      3.496163   -0.959971   -0.001359
  H      4.017235   -1.256583   -0.837714
  H      3.326865    0.146862   -0.000634
  H      4.018535   -1.255968    0.834425

----------------------------
CARTESIAN COORDINATES (A.U.)
----------------------------
  NO LB      ZA    FRAG     MASS         X           Y           Z
   0 N     7.0000    0    14.007   -6.201830    2.883081   -0.030876
   1 H     1.0000    0     1.008   -5.846469    4.779580   -0.031976
   2 C     6.0000    0    12.011   -8.849417    2.106873   -0.047251
   3 C     6.0000    0    12.011  -10.667466    4.333922   -0.062416
   4 H     1.0000    0     1.008   -9.261194    0.926703   -1.719757
   5 H     1.0000    0     1.008   -9.283924    0.931129    1.622487
   6 O     8.0000    0    15.999  -12.935665    4.112792   -0.069971
   7 C     6.0000    0    12.011   -4.314003    1.180994   -0.019746
   8 C     6.0000    0    12.011   -1.593213    2.240943   -0.001688
   9 O     8.0000    0    15.999   -4.637258   -1.133883   -0.021872
  10 N     7.0000    0    14.007    0.000000    0.000000    0.000000
  11 H     1.0000    0     1.008   -1.245443    3.409589    1.693342
  12 H     1.0000    0     1.008   -1.224728    3.422164   -1.683394
  13 H     1.0000    0     1.008   -1.121001   -1.617418   -0.004764
  14 C     6.0000    0    12.011    2.498549    0.000000    0.000000
  15 C     6.0000    0    12.011    3.885230   -2.590195    0.000745
  16 O     8.0000    0    15.999    3.889474    1.909863    0.000000
  17 H     1.0000    0     1.008    3.443262   -3.714997   -1.691437
  18 H     1.0000    0     1.008    3.446660   -3.709644    1.697388
  19 O     8.0000    0    15.999   -9.431381    6.590960   -0.067012
  20 H     1.0000    0     1.008  -10.720760    7.924493   -0.076936
  21 N     7.0000    0    14.007    6.606791   -1.814082   -0.002568
  22 H     1.0000    0     1.008    7.591474   -2.374598   -1.583050
  23 H     1.0000    0     1.008    6.286864    0.277529   -0.001198
  24 H     1.0000    0     1.008    7.593931   -2.373436    1.576835

--------------------------------
INTERNAL COORDINATES (ANGSTROEM)
--------------------------------
 N      0   0   0     0.000000000000     0.00000000     0.00000000
 H      1   0   0     1.021050248607     0.00000000     0.00000000
 C      1   2   0     1.460038963719   116.95200013     0.00000000
 C      3   1   2     1.521352938519   112.88775078   359.97496912
 H      3   1   2     1.104908476515   110.67167596   121.15054900
 H      3   1   2     1.104852239288   110.69420811   238.78830384
 O      4   3   1     1.205976218727   123.65863894   180.21455574
 C      1   2   3     1.345101111650   121.42515834   179.87598237
 C      8   1   2     1.545207978667   116.67810648     0.15546400
 O      8   1   2     1.236866382236   124.08803259   180.11769363
 N      9   8   1     1.455011811172   104.12651624   180.15565787
 H      9   8   1     1.104929538525   111.30772595    60.44058181
 H      9   8   1     1.104853294289   111.39717620   299.92956370
 H     11   9   8     1.041378225481   109.86361272   359.80364717
 C     11   9   8     1.322175000000   125.41116274   179.61846444
 C     15  11   9     1.554736095554   118.16271804   180.02667647
 O     15  11   9     1.250275675382   126.06530421     0.04314615
 H     16  15  11     1.100382665411   112.10838425    61.46498924
 H     16  15  11     1.100397055137   112.04096256   298.34860974
 O      4   3   1     1.361759910343   112.06611991     0.22940887
 H     20   4   3     0.981606705982   107.25703012   179.99541830
 N     16  15  11     1.497604707443   102.24603741   179.93599343
 H     22  16  15     1.029069673906   114.13236988   242.90737668
 H     22  16  15     1.119706045495    97.22020894     0.07530634
 H     22  16  15     1.029087763531   114.09907115   117.12720753

---------------------------
INTERNAL COORDINATES (A.U.)
---------------------------
 N      0   0   0     0.000000000000     0.00000000     0.00000000
 H      1   0   0     1.929505338840     0.00000000     0.00000000
 C      1   2   0     2.759073786283   116.95200013     0.00000000
 C      3   1   2     2.874940406838   112.88775078   359.97496912
 H      3   1   2     2.087974423661   110.67167596   121.15054900
 H      3   1   2     2.087868150703   110.69420811   238.78830384
 O      4   3   1     2.278964777415   123.65863894   180.21455574
 C      1   2   3     2.541872723451   121.42515834   179.87598237
 C      8   1   2     2.920019899631   116.67810648     0.15546400
 O      8   1   2     2.337338726680   124.08803259   180.11769363
 N      9   8   1     2.749573844735   104.12651624   180.15565787
 H      9   8   1     2.088014225093   111.30772595    60.44058181
 H      9   8   1     2.087870144368   111.39717620   299.92956370
 H     11   9   8     1.967919647988   109.86361272   359.80364717
 C     11   9   8     2.498548651117   125.41116274   179.61846444
 C     15  11   9     2.938025431120   118.16271804   180.02667647
 O     15  11   9     2.362678618375   126.06530421     0.04314615
 H     16  15  11     2.079421880141   112.10838425    61.46498924
 H     16  15  11     2.079449072783   112.04096256   298.34860974
 O      4   3   1     2.573353290701   112.06611991     0.22940887
 H     20   4   3     1.854967845527   107.25703012   179.99541830
 N     16  15  11     2.830062753938   102.24603741   179.93599343
 H     22  16  15     1.944659856406   114.13236988   242.90737668
 H     22  16  15     2.115937776481    97.22020894     0.07530634
 H     22  16  15     1.944694040843   114.09907115   117.12720753

---------------------
BASIS SET INFORMATION
---------------------
There are 4 groups of distinct atoms

 Group   1 Type N   : 11s6p2d1f contracted to 5s3p2d1f pattern {62111/411/11/1}
 Group   2 Type H   : 5s2p1d contracted to 3s2p1d pattern {311/11/1}
 Group   3 Type C   : 11s6p2d1f contracted to 5s3p2d1f pattern {62111/411/11/1}
 Group   4 Type O   : 11s6p2d1f contracted to 5s3p2d1f pattern {62111/411/11/1}

Atom   0N    basis set group =>   1
Atom   1H    basis set group =>   2
Atom   2C    basis set group =>   3
Atom   3C    basis set group =>   3
Atom   4H    basis set group =>   2
Atom   5H    basis set group =>   2
Atom   6O    basis set group =>   4
Atom   7C    basis set group =>   3
Atom   8C    basis set group =>   3
Atom   9O    basis set group =>   4
Atom  10N    basis set group =>   1
Atom  11H    basis set group =>   2
Atom  12H    basis set group =>   2
Atom  13H    basis set group =>   2
Atom  14C    basis set group =>   3
Atom  15C    basis set group =>   3
Atom  16O    basis set group =>   4
Atom  17H    basis set group =>   2
Atom  18H    basis set group =>   2
Atom  19O    basis set group =>   4
Atom  20H    basis set group =>   2
Atom  21N    basis set group =>   1
Atom  22H    basis set group =>   2
Atom  23H    basis set group =>   2
Atom  24H    basis set group =>   2
---------------------------------
AUXILIARY/J BASIS SET INFORMATION
---------------------------------
There are 4 groups of distinct atoms

 Group   1 Type N   : 12s5p4d2f1g contracted to 6s4p3d1f1g pattern {711111/2111/211/2/1}
 Group   2 Type H   : 5s2p1d contracted to 3s1p1d pattern {311/2/1}
 Group   3 Type C   : 12s5p4d2f1g contracted to 6s4p3d1f1g pattern {711111/2111/211/2/1}
 Group   4 Type O   : 12s5p4d2f1g contracted to 6s4p3d1f1g pattern {711111/2111/211/2/1}

Atom   0N    basis set group =>   1
Atom   1H    basis set group =>   2
Atom   2C    basis set group =>   3
Atom   3C    basis set group =>   3
Atom   4H    basis set group =>   2
Atom   5H    basis set group =>   2
Atom   6O    basis set group =>   4
Atom   7C    basis set group =>   3
Atom   8C    basis set group =>   3
Atom   9O    basis set group =>   4
Atom  10N    basis set group =>   1
Atom  11H    basis set group =>   2
Atom  12H    basis set group =>   2
Atom  13H    basis set group =>   2
Atom  14C    basis set group =>   3
Atom  15C    basis set group =>   3
Atom  16O    basis set group =>   4
Atom  17H    basis set group =>   2
Atom  18H    basis set group =>   2
Atom  19O    basis set group =>   4
Atom  20H    basis set group =>   2
Atom  21N    basis set group =>   1
Atom  22H    basis set group =>   2
Atom  23H    basis set group =>   2
Atom  24H    basis set group =>   2


           ************************************************************
           *        Program running with 8 parallel MPI-processes     *
           *              working on a common directory               *
           ************************************************************
------------------------------------------------------------------------------
                           ORCA GTO INTEGRAL CALCULATION
                           -- RI-GTO INTEGRALS CHOSEN --
------------------------------------------------------------------------------
------------------------------------------------------------------------------
                   ___                                                        
                  /   \      - P O W E R E D   B Y -                         
                 /     \                                                     
                 |  |  |   _    _      __       _____    __    __             
                 |  |  |  | |  | |    /  \     |  _  \  |  |  /  |          
                  \  \/   | |  | |   /    \    | | | |  |  | /  /          
                 / \  \   | |__| |  /  /\  \   | |_| |  |  |/  /          
                |  |  |   |  __  | /  /__\  \  |    /   |      \           
                |  |  |   | |  | | |   __   |  |    \   |  |\   \          
                \     /   | |  | | |  |  |  |  | |\  \  |  | \   \       
                 \___/    |_|  |_| |__|  |__|  |_| \__\ |__|  \__/        
                                                                              
                      - O R C A' S   B I G   F R I E N D -                    
                                      &                                       
                       - I N T E G R A L  F E E D E R -                       
                                                                              
 v1 FN, 2020, v2 2021                                                         
------------------------------------------------------------------------------


Reading SHARK input file GGG-H_tt_005_OptFreq.SHARKINP.tmp ... ok
----------------------
SHARK INTEGRAL PACKAGE
----------------------

Number of atoms                             ...     25
Number of basis functions                   ...    571
Number of shells                            ...    215
Maximum angular momentum                    ...      3
Integral batch strategy                     ... SHARK/LIBINT Hybrid
RI-J (if used) integral strategy            ... SPLIT-RIJ (Revised 2003 algorithm where possible)
Printlevel                                  ...      1
Contraction scheme used                     ... SEGMENTED contraction
Coulomb Range Separation                    ... NOT USED
Exchange Range Separation                   ... Long Range
   Mu parameter                             ...  0.300000
   Scaling (regular/separated)              ...  0.167000  0.833000
Finite Nucleus Model                        ... NOT USED
Auxiliary Coulomb fitting basis             ... AVAILABLE
   # of basis functions in Aux-J            ...    769
   # of shells in Aux-J                     ...    255
   Maximum angular momentum in Aux-J        ...      4
Auxiliary J/K fitting basis                 ... NOT available
Auxiliary Correlation fitting basis         ... NOT available
Auxiliary 'external' fitting basis          ... NOT available
Integral threshold                          ...     1.000000e-12
Primitive cut-off                           ...     1.000000e-14
Primitive pair pre-selection threshold      ...     1.000000e-14

Calculating pre-screening integrals         ... done (  0.0 sec) Dimension = 215
Organizing shell pair data                  ... done (  0.2 sec)
Shell pair information
Total number of shell pairs                 ...     23220
Shell pairs after pre-screening             ...     16906
Total number of primitive shell pairs       ...     63868
Primitive shell pairs kept                  ...     34170
          la=0 lb=0:   3789 shell pairs
          la=1 lb=0:   4809 shell pairs
          la=1 lb=1:   1574 shell pairs
          la=2 lb=0:   2652 shell pairs
          la=2 lb=1:   1716 shell pairs
          la=2 lb=2:    483 shell pairs
          la=3 lb=0:    914 shell pairs
          la=3 lb=1:    591 shell pairs
          la=3 lb=2:    315 shell pairs
          la=3 lb=3:     63 shell pairs

Calculating one electron integrals          ... done (  0.0 sec)
Calculating RI/J V-Matrix + Cholesky decomp.... done (  0.2 sec)
Calculating Nuclear repulsion               ... done (  0.0 sec) ENN=    790.385971477959 Eh

SHARK setup successfully completed in   1.2 seconds

Maximum memory used throughout the entire GTOINT-calculation: 29.0 MB


           ************************************************************
           *        Program running with 8 parallel MPI-processes     *
           *              working on a common directory               *
           ************************************************************
-------------------------------------------------------------------------------
                                 ORCA SCF
-------------------------------------------------------------------------------

------------
SCF SETTINGS
------------
Hamiltonian:
 Density Functional     Method          .... DFT(GTOs)
 Exchange Functional    Exchange        .... WB97X-V
 Correlation Functional Correlation     .... WB97X-V
 Gradients option       PostSCFGGA      .... off
 Hybrid DFT is turned on
   Fraction HF Exchange ScalHFX         ....  0.167000
   Scaling of DF-GGA-X  ScalDFX         ....  0.000000
   Scaling of DF-GGA-C  ScalDFC         ....  1.000000
   Scaling of DF-LDA-C  ScalLDAC        ....  1.000000
   Perturbative correction              ....  0.000000
   Density functional embedding theory  .... OFF
 Long-range corrected/Screened/Range-Separated Hybrid DFT is turned on
   Amount of maximum screened exact exchange              ....  0.833000
   Range separation parameter mu (erf(mu*r12)/r12)        ....  0.300000
 RI-approximation to the Coulomb term is turned on
   Number of AuxJ basis functions       .... 769
   RIJ-COSX (HFX calculated with COS-X)).... on


General Settings:
 Integral files         IntName         .... GGG-H_tt_005_OptFreq
 Hartree-Fock type      HFTyp           .... RHF
 Total Charge           Charge          ....    1
 Multiplicity           Mult            ....    1
 Number of Electrons    NEL             ....  100
 Basis Dimension        Dim             ....  571
 Nuclear Repulsion      ENuc            ....    790.3859714780 Eh

Convergence Acceleration:
 DIIS                   CNVDIIS         .... on
   Start iteration      DIISMaxIt       ....    12
   Startup error        DIISStart       ....  0.200000
   # of expansion vecs  DIISMaxEq       ....     5
   Bias factor          DIISBfac        ....   1.050
   Max. coefficient     DIISMaxC        ....  10.000
 Trust-Rad. Augm. Hess. CNVTRAH         .... auto
   Auto Start mean grad. ratio tolernc. ....  1.125000
   Auto Start start iteration           ....    20
   Auto Start num. interpolation iter.  ....    10
   Max. Number of Micro iterations      ....    16
   Max. Number of Macro iterations      .... Maxiter - #DIIS iter
   Number of Davidson start vectors     ....     2
   Converg. threshold I  (grad. norm)   ....   2.000e-06
   Converg. threshold II (energy diff.) ....   1.000e-09
   Grad. Scal. Fac. for Micro threshold ....   0.100
   Minimum threshold for Micro iter.    ....   0.010
   NR start threshold (gradient norm)   ....   0.001
   Initial trust radius                 ....   0.400
   Minimum AH scaling param. (alpha)    ....   1.000
   Maximum AH scaling param. (alpha)    .... 1000.000
   Orbital update algorithm             .... Taylor
   White noise on init. David. guess    .... on
   Maximum white noise                  ....   0.010
   Quad. conv. algorithm                .... NR
 SOSCF                  CNVSOSCF        .... on
   Start iteration      SOSCFMaxIt      ....   150
   Startup grad/error   SOSCFStart      ....  0.003300
 Level Shifting         CNVShift        .... on
   Level shift para.    LevelShift      ....    0.2500
   Turn off err/grad.   ShiftErr        ....    0.0010
 Zerner damping         CNVZerner       .... off
 Static damping         CNVDamp         .... on
   Fraction old density DampFac         ....    0.7000
   Max. Damping (<1)    DampMax         ....    0.9800
   Min. Damping (>=0)   DampMin         ....    0.0000
   Turn off err/grad.   DampErr         ....    0.1000
 Fernandez-Rico         CNVRico         .... off

SCF Procedure:
 Maximum # iterations   MaxIter         ....   125
 SCF integral mode      SCFMode         .... Direct
   Integral package                     .... SHARK and LIBINT hybrid scheme
 Reset frequency        DirectResetFreq ....    20
 Integral Threshold     Thresh          ....  1.000e-12 Eh
 Primitive CutOff       TCut            ....  1.000e-14 Eh

Convergence Tolerance:
 Convergence Check Mode ConvCheckMode   .... Total+1el-Energy
 Convergence forced     ConvForced      .... 0
 Energy Change          TolE            ....  1.000e-09 Eh
 1-El. energy change                    ....  1.000e-06 Eh
 Orbital Gradient       TolG            ....  2.000e-06
 Orbital Rotation angle TolX            ....  2.000e-06
 DIIS Error             TolErr          ....  1.000e-08


Diagonalization of the overlap matrix:
Smallest eigenvalue                        ... 1.438e-04
Time for diagonalization                   ...    0.054 sec
Threshold for overlap eigenvalues          ... 1.000e-08
Number of eigenvalues below threshold      ... 0
Time for construction of square roots      ...    0.899 sec
Total time needed                          ...    0.955 sec

Time for model grid setup =    0.183 sec

------------------------------
INITIAL GUESS: MODEL POTENTIAL
------------------------------
Loading Hartree-Fock densities                     ... done
Calculating cut-offs                               ... done
Initializing the effective Hamiltonian             ... done
Setting up the integral package (SHARK)            ... done
Starting the Coulomb interaction                   ... done (   0.4 sec)
Reading the grid                                   ... done
Mapping shells                                     ... done
Starting the XC term evaluation                    ... done (   0.1 sec)
  promolecular density results
     # of electrons  =    100.994416506
     EX              =    -58.972791109
     EC              =     -4.264235332
     EX+EC           =    -63.237026441
Transforming the Hamiltonian                       ... done (   0.1 sec)
Diagonalizing the Hamiltonian                      ... done (   0.0 sec)
Back transforming the eigenvectors                 ... done (   0.0 sec)
Now organizing SCF variables                       ... done
                      ------------------
                      INITIAL GUESS DONE (   0.9 sec)
                      ------------------
-------------------
DFT GRID GENERATION
-------------------

General Integration Accuracy     IntAcc      ... 4.959
Radial Grid Type                 RadialGrid  ... OptM3 with GC (2021)
Angular Grid (max. ang.)         AngularGrid ... 6 (Lebedev-590)
Angular grid pruning method      GridPruning ... 4 (adaptive)
Weight generation scheme         WeightScheme... Becke
Basis function cutoff            BFCut       ... 1.0000e-12
Integration weight cutoff        WCut        ... 1.0000e-14
Angular grids for H and He will be reduced by one unit
Partially contracted basis set               ... off
Rotationally invariant grid construction     ... off

Total number of grid points                  ...   290045
Total number of batches                      ...     4547
Average number of points per batch           ...       63
Average number of grid points per atom       ...    11602
Time for grid setup =    3.096 sec

--------------------
COSX GRID GENERATION
--------------------

GRIDX 1
-------
General Integration Accuracy     IntAcc      ... 4.020
Radial Grid Type                 RadialGrid  ... OptM3 with GC (2021)
Angular Grid (max. ang.)         AngularGrid ... 2 (Lebedev-110)
Angular grid pruning method      GridPruning ... 4 (adaptive)
Weight generation scheme         WeightScheme... Becke
Basis function cutoff            BFCut       ... 1.0000e-12
Integration weight cutoff        WCut        ... 1.0000e-14
Angular grids for H and He will be reduced by one unit
Partially contracted basis set               ... on
Rotationally invariant grid construction     ... off

Total number of grid points                  ...    32468
Total number of batches                      ...      519
Average number of points per batch           ...       62
Average number of grid points per atom       ...     1299
UseSFitting                                  ... on

GRIDX 2
-------
General Integration Accuracy     IntAcc      ... 4.338
Radial Grid Type                 RadialGrid  ... OptM3 with GC (2021)
Angular Grid (max. ang.)         AngularGrid ... 3 (Lebedev-194)
Angular grid pruning method      GridPruning ... 4 (adaptive)
Weight generation scheme         WeightScheme... Becke
Basis function cutoff            BFCut       ... 1.0000e-12
Integration weight cutoff        WCut        ... 1.0000e-14
Angular grids for H and He will be reduced by one unit
Partially contracted basis set               ... on
Rotationally invariant grid construction     ... off

Total number of grid points                  ...    71284
Total number of batches                      ...     1128
Average number of points per batch           ...       63
Average number of grid points per atom       ...     2851
UseSFitting                                  ... on

GRIDX 3
-------
General Integration Accuracy     IntAcc      ... 4.871
Radial Grid Type                 RadialGrid  ... OptM3 with GC (2021)
Angular Grid (max. ang.)         AngularGrid ... 4 (Lebedev-302)
Angular grid pruning method      GridPruning ... 4 (adaptive)
Weight generation scheme         WeightScheme... Becke
Basis function cutoff            BFCut       ... 1.0000e-12
Integration weight cutoff        WCut        ... 1.0000e-14
Angular grids for H and He will be reduced by one unit
Partially contracted basis set               ... on
Rotationally invariant grid construction     ... off

Total number of grid points                  ...   135116
Total number of batches                      ...     2123
Average number of points per batch           ...       63
Average number of grid points per atom       ...     5405
UseSFitting                                  ... on

Time for X-Grid setup             =    2.278 sec

--------------
SCF ITERATIONS
--------------
ITER       Energy         Delta-E        Max-DP      RMS-DP      [F,P]     Damp
               ***  Starting incremental Fock matrix formation  ***
  0   -701.1626458611   0.000000000000 0.02738509  0.00039436  0.3436790 0.7000
  1   -701.2100156252  -0.047369764180 0.03144803  0.00035249  0.2341381 0.7000
                               ***Turning on DIIS***
  2   -701.2373466442  -0.027331018945 0.03062656  0.00027443  0.1631304 0.7000
  3   -701.2552969559  -0.017950311667 0.02908697  0.00022169  0.1124553 0.7000
  4   -701.2678866982  -0.012589742367 0.07772566  0.00058644  0.0774084 0.0000
                      *** Initiating the SOSCF procedure ***
                           *** Shutting down DIIS ***
                      *** Re-Reading the Fockian *** 
                      *** Removing any level shift *** 
ITER      Energy       Delta-E        Grad      Rot      Max-DP    RMS-DP
  5   -701.29819147  -0.0303047689  0.001721  0.001721  0.008130  0.000062
               *** Restarting incremental Fock matrix formation ***
  6   -701.29830773  -0.0001162582  0.000684  0.001286  0.005085  0.000037
  7   -701.29833671  -0.0000289851  0.000664  0.001899  0.003250  0.000025
  8   -701.29834268  -0.0000059658  0.000349  0.000504  0.000591  0.000008
  9   -701.29834455  -0.0000018713  0.000107  0.000091  0.000482  0.000004
 10   -701.29834470  -0.0000001568  0.000041  0.000058  0.000208  0.000002
 11   -701.29834481  -0.0000001091  0.000005  0.000016  0.000014  0.000000
 12   -701.29834482  -0.0000000023  0.000003  0.000005  0.000014  0.000000
 13   -701.29834482  -0.0000000013  0.000001  0.000002  0.000006  0.000000
 14   -701.29834482   0.0000000000  0.000001  0.000001  0.000002  0.000000
                  ***Gradient check signals convergence***
              ***Rediagonalizing the Fockian in SOSCF/NRSCF***

               *****************************************************
               *                     SUCCESS                       *
               *           SCF CONVERGED AFTER  15 CYCLES          *
               *****************************************************

Old exchange energy                            =    -27.827120079 Eh
New exchange energy                            =    -27.827118534 Eh
Exchange energy change after final integration =      0.000001546 Eh
Total energy after final integration           =   -701.298343271 Eh
Final COS-X integration done in                =    28.121 sec

----------------
TOTAL SCF ENERGY
----------------

Total Energy       :         -701.29834327 Eh          -19083.29810 eV

Components:
Nuclear Repulsion  :          790.38597148 Eh           21507.49570 eV
Electronic Energy  :        -1491.68431475 Eh          -40590.79380 eV
One Electron Energy:        -2510.22791859 Eh          -68306.77431 eV
Two Electron Energy:         1018.54360384 Eh           27715.98051 eV
Max COSX asymmetry :            0.00000037 Eh               0.00001 eV

Virial components:
Potential Energy   :        -1399.23287561 Eh          -38075.06224 eV
Kinetic Energy     :          697.93453233 Eh           18991.76415 eV
Virial Ratio       :            2.00481967


DFT components:
N(Alpha)           :       50.000000829901 electrons
N(Beta)            :       50.000000829901 electrons
N(Total)           :      100.000001659802 electrons
E(X)               :      -60.042289527453 Eh       
E(C)               :       -4.263891491983 Eh       
E(XC)              :      -64.306181019436 Eh       
DFET-embed. en.    :        0.000000000000 Eh       

---------------
SCF CONVERGENCE
---------------

  Last Energy change         ...   -1.1255e-11  Tolerance :   1.0000e-09
  Last MAX-Density change    ...    2.5535e-15  Tolerance :   1.0000e-08
  Last RMS-Density change    ...    1.2810e-17  Tolerance :   1.0000e-09
  Last Orbital Gradient      ...    9.2735e-08  Tolerance :   2.0000e-06
  Last Orbital Rotation      ...    2.4920e-07  Tolerance :   2.0000e-06

             **** THE GBW FILE WAS UPDATED (GGG-H_tt_005_OptFreq.gbw) ****
             **** DENSITY GGG-H_tt_005_OptFreq.scfp WAS UPDATED ****
             **** ENERGY FILE WAS UPDATED (GGG-H_tt_005_OptFreq.en.tmp) ****
             **** THE GBW FILE WAS UPDATED (GGG-H_tt_005_OptFreq.gbw) ****
             **** DENSITY GGG-H_tt_005_OptFreq.scfp WAS UPDATED ****
----------------
ORBITAL ENERGIES
----------------

  NO   OCC          E(Eh)            E(eV) 
   0   2.0000     -19.373398      -527.1770 
   1   2.0000     -19.371343      -527.1211 
   2   2.0000     -19.318924      -525.6947 
   3   2.0000     -19.306372      -525.3531 
   4   2.0000     -14.692708      -399.8089 
   5   2.0000     -14.605635      -397.4395 
   6   2.0000     -14.570870      -396.4935 
   7   2.0000     -10.561908      -287.4041 
   8   2.0000     -10.522391      -286.3288 
   9   2.0000     -10.518298      -286.2174 
  10   2.0000     -10.517390      -286.1927 
  11   2.0000     -10.467536      -284.8361 
  12   2.0000     -10.438383      -284.0428 
  13   2.0000      -1.363773       -37.1101 
  14   2.0000      -1.345920       -36.6243 
  15   2.0000      -1.310157       -35.6512 
  16   2.0000      -1.285054       -34.9681 
  17   2.0000      -1.254331       -34.1321 
  18   2.0000      -1.227131       -33.3919 
  19   2.0000      -1.189517       -32.3684 
  20   2.0000      -1.061605       -28.8877 
  21   2.0000      -1.017672       -27.6923 
  22   2.0000      -0.976651       -26.5760 
  23   2.0000      -0.885030       -24.0829 
  24   2.0000      -0.871735       -23.7211 
  25   2.0000      -0.868850       -23.6426 
  26   2.0000      -0.856003       -23.2930 
  27   2.0000      -0.836579       -22.7645 
  28   2.0000      -0.802407       -21.8346 
  29   2.0000      -0.773112       -21.0375 
  30   2.0000      -0.756619       -20.5886 
  31   2.0000      -0.756068       -20.5737 
  32   2.0000      -0.726396       -19.7662 
  33   2.0000      -0.726284       -19.7632 
  34   2.0000      -0.712233       -19.3809 
  35   2.0000      -0.706950       -19.2371 
  36   2.0000      -0.699161       -19.0251 
  37   2.0000      -0.677113       -18.4252 
  38   2.0000      -0.664337       -18.0775 
  39   2.0000      -0.659501       -17.9459 
  40   2.0000      -0.640864       -17.4388 
  41   2.0000      -0.634300       -17.2602 
  42   2.0000      -0.616387       -16.7728 
  43   2.0000      -0.601892       -16.3783 
  44   2.0000      -0.570460       -15.5230 
  45   2.0000      -0.540020       -14.6947 
  46   2.0000      -0.535604       -14.5745 
  47   2.0000      -0.512712       -13.9516 
  48   2.0000      -0.493313       -13.4237 
  49   2.0000      -0.490314       -13.3421 
  50   0.0000      -0.081818        -2.2264 
  51   0.0000      -0.073459        -1.9989 
  52   0.0000      -0.029211        -0.7949 
  53   0.0000      -0.027741        -0.7549 
  54   0.0000      -0.020955        -0.5702 
  55   0.0000      -0.007659        -0.2084 
  56   0.0000      -0.006647        -0.1809 
  57   0.0000       0.017890         0.4868 
  58   0.0000       0.022374         0.6088 
  59   0.0000       0.033504         0.9117 
  60   0.0000       0.043991         1.1970 
  61   0.0000       0.046972         1.2782 
  62   0.0000       0.056885         1.5479 
  63   0.0000       0.060894         1.6570 
  64   0.0000       0.078457         2.1349 
  65   0.0000       0.081991         2.2311 
  66   0.0000       0.101345         2.7577 
  67   0.0000       0.114053         3.1035 
  68   0.0000       0.117308         3.1921 
  69   0.0000       0.122366         3.3297 
  70   0.0000       0.132436         3.6038 
  71   0.0000       0.136138         3.7045 
  72   0.0000       0.144960         3.9446 
  73   0.0000       0.159389         4.3372 
  74   0.0000       0.175584         4.7779 
  75   0.0000       0.183250         4.9865 
  76   0.0000       0.192653         5.2424 
  77   0.0000       0.200017         5.4427 
  78   0.0000       0.204345         5.5605 
  79   0.0000       0.216750         5.8981 
  80   0.0000       0.219075         5.9613 
  81   0.0000       0.222553         6.0560 
  82   0.0000       0.242785         6.6065 
  83   0.0000       0.252110         6.8603 
  84   0.0000       0.267657         7.2833 
  85   0.0000       0.272282         7.4092 
  86   0.0000       0.277102         7.5403 
  87   0.0000       0.278654         7.5826 
  88   0.0000       0.292269         7.9530 
  89   0.0000       0.294966         8.0264 
  90   0.0000       0.307825         8.3763 
  91   0.0000       0.312982         8.5167 
  92   0.0000       0.316597         8.6150 
  93   0.0000       0.323967         8.8156 
  94   0.0000       0.330437         8.9917 
  95   0.0000       0.338244         9.2041 
  96   0.0000       0.340065         9.2537 
  97   0.0000       0.357864         9.7380 
  98   0.0000       0.360965         9.8224 
  99   0.0000       0.369209        10.0467 
 100   0.0000       0.371113        10.0985 
 101   0.0000       0.374114        10.1801 
 102   0.0000       0.385273        10.4838 
 103   0.0000       0.388817        10.5802 
 104   0.0000       0.393480        10.7071 
 105   0.0000       0.401615        10.9285 
 106   0.0000       0.406271        11.0552 
 107   0.0000       0.411971        11.2103 
 108   0.0000       0.430276        11.7084 
 109   0.0000       0.430753        11.7214 
 110   0.0000       0.441394        12.0109 
 111   0.0000       0.441483        12.0134 
 112   0.0000       0.453184        12.3318 
 113   0.0000       0.462654        12.5895 
 114   0.0000       0.467834        12.7304 
 115   0.0000       0.480000        13.0615 
 116   0.0000       0.490702        13.3527 
 117   0.0000       0.496753        13.5173 
 118   0.0000       0.512284        13.9400 
 119   0.0000       0.518792        14.1170 
 120   0.0000       0.522823        14.2267 
 121   0.0000       0.529400        14.4057 
 122   0.0000       0.534846        14.5539 
 123   0.0000       0.560671        15.2566 
 124   0.0000       0.574331        15.6283 
 125   0.0000       0.586426        15.9575 
 126   0.0000       0.589297        16.0356 
 127   0.0000       0.591337        16.0911 
 128   0.0000       0.603044        16.4097 
 129   0.0000       0.620208        16.8767 
 130   0.0000       0.623937        16.9782 
 131   0.0000       0.631415        17.1817 
 132   0.0000       0.637433        17.3454 
 133   0.0000       0.651248        17.7214 
 134   0.0000       0.666210        18.1285 
 135   0.0000       0.678501        18.4629 
 136   0.0000       0.690295        18.7839 
 137   0.0000       0.696576        18.9548 
 138   0.0000       0.702833        19.1251 
 139   0.0000       0.729774        19.8582 
 140   0.0000       0.730384        19.8748 
 141   0.0000       0.750574        20.4241 
 142   0.0000       0.759481        20.6665 
 143   0.0000       0.772052        21.0086 
 144   0.0000       0.773767        21.0553 
 145   0.0000       0.788649        21.4602 
 146   0.0000       0.803508        21.8646 
 147   0.0000       0.810059        22.0428 
 148   0.0000       0.837579        22.7917 
 149   0.0000       0.841672        22.9031 
 150   0.0000       0.859072        23.3765 
 151   0.0000       0.865192        23.5431 
 152   0.0000       0.878542        23.9063 
 153   0.0000       0.892887        24.2967 
 154   0.0000       0.901990        24.5444 
 155   0.0000       0.909052        24.7366 
 156   0.0000       0.913809        24.8660 
 157   0.0000       0.920649        25.0521 
 158   0.0000       0.930409        25.3177 
 159   0.0000       0.931824        25.3562 
 160   0.0000       0.945552        25.7298 
 161   0.0000       0.946782        25.7632 
 162   0.0000       0.959413        26.1070 
 163   0.0000       0.966228        26.2924 
 164   0.0000       0.967106        26.3163 
 165   0.0000       0.976454        26.5707 
 166   0.0000       1.010613        27.5002 
 167   0.0000       1.014143        27.5962 
 168   0.0000       1.017495        27.6874 
 169   0.0000       1.029190        28.0057 
 170   0.0000       1.031357        28.0646 
 171   0.0000       1.034350        28.1461 
 172   0.0000       1.056678        28.7537 
 173   0.0000       1.072096        29.1732 
 174   0.0000       1.091163        29.6920 
 175   0.0000       1.103233        30.0205 
 176   0.0000       1.103793        30.0357 
 177   0.0000       1.118020        30.4229 
 178   0.0000       1.127943        30.6929 
 179   0.0000       1.142429        31.0871 
 180   0.0000       1.152597        31.3638 
 181   0.0000       1.172996        31.9189 
 182   0.0000       1.190905        32.4062 
 183   0.0000       1.200143        32.6575 
 184   0.0000       1.204722        32.7822 
 185   0.0000       1.216943        33.1147 
 186   0.0000       1.219800        33.1924 
 187   0.0000       1.241710        33.7886 
 188   0.0000       1.243858        33.8471 
 189   0.0000       1.247553        33.9477 
 190   0.0000       1.262479        34.3538 
 191   0.0000       1.292020        35.1577 
 192   0.0000       1.311883        35.6982 
 193   0.0000       1.319764        35.9126 
 194   0.0000       1.322034        35.9744 
 195   0.0000       1.334255        36.3069 
 196   0.0000       1.348227        36.6871 
 197   0.0000       1.348775        36.7020 
 198   0.0000       1.363836        37.1119 
 199   0.0000       1.370107        37.2825 
 200   0.0000       1.370641        37.2970 
 201   0.0000       1.393933        37.9309 
 202   0.0000       1.402258        38.1574 
 203   0.0000       1.405326        38.2409 
 204   0.0000       1.410905        38.3927 
 205   0.0000       1.420844        38.6631 
 206   0.0000       1.435848        39.0714 
 207   0.0000       1.439374        39.1674 
 208   0.0000       1.448039        39.4031 
 209   0.0000       1.462358        39.7928 
 210   0.0000       1.469902        39.9981 
 211   0.0000       1.493580        40.6424 
 212   0.0000       1.497449        40.7477 
 213   0.0000       1.515709        41.2446 
 214   0.0000       1.543144        41.9911 
 215   0.0000       1.554697        42.3054 
 216   0.0000       1.556840        42.3638 
 217   0.0000       1.579726        42.9865 
 218   0.0000       1.580183        42.9990 
 219   0.0000       1.602295        43.6007 
 220   0.0000       1.617740        44.0209 
 221   0.0000       1.622815        44.1590 
 222   0.0000       1.648749        44.8647 
 223   0.0000       1.663469        45.2653 
 224   0.0000       1.673065        45.5264 
 225   0.0000       1.685794        45.8728 
 226   0.0000       1.695674        46.1416 
 227   0.0000       1.697215        46.1836 
 228   0.0000       1.728020        47.0218 
 229   0.0000       1.732470        47.1429 
 230   0.0000       1.765793        48.0497 
 231   0.0000       1.771519        48.2055 
 232   0.0000       1.780945        48.4620 
 233   0.0000       1.797030        48.8997 
 234   0.0000       1.798364        48.9360 
 235   0.0000       1.841757        50.1168 
 236   0.0000       1.863805        50.7167 
 237   0.0000       1.881134        51.1883 
 238   0.0000       1.895989        51.5925 
 239   0.0000       1.901321        51.7376 
 240   0.0000       1.919865        52.2422 
 241   0.0000       1.929578        52.5065 
 242   0.0000       1.948371        53.0179 
 243   0.0000       1.959800        53.3289 
 244   0.0000       1.978619        53.8410 
 245   0.0000       2.005758        54.5795 
 246   0.0000       2.024223        55.0819 
 247   0.0000       2.046873        55.6982 
 248   0.0000       2.052222        55.8438 
 249   0.0000       2.076604        56.5073 
 250   0.0000       2.117846        57.6295 
 251   0.0000       2.132336        58.0238 
 252   0.0000       2.142498        58.3003 
 253   0.0000       2.154644        58.6309 
 254   0.0000       2.183913        59.4273 
 255   0.0000       2.194246        59.7085 
 256   0.0000       2.223559        60.5061 
 257   0.0000       2.234537        60.8048 
 258   0.0000       2.270166        61.7744 
 259   0.0000       2.271859        61.8204 
 260   0.0000       2.295359        62.4599 
 261   0.0000       2.318572        63.0915 
 262   0.0000       2.337516        63.6070 
 263   0.0000       2.342018        63.7295 
 264   0.0000       2.357310        64.1457 
 265   0.0000       2.377279        64.6890 
 266   0.0000       2.413187        65.6662 
 267   0.0000       2.435771        66.2807 
 268   0.0000       2.447153        66.5904 
 269   0.0000       2.465252        67.0829 
 270   0.0000       2.527103        68.7660 
 271   0.0000       2.529630        68.8347 
 272   0.0000       2.540317        69.1255 
 273   0.0000       2.554699        69.5169 
 274   0.0000       2.566974        69.8509 
 275   0.0000       2.572306        69.9960 
 276   0.0000       2.588438        70.4350 
 277   0.0000       2.596429        70.6524 
 278   0.0000       2.617100        71.2149 
 279   0.0000       2.622417        71.3596 
 280   0.0000       2.623952        71.4014 
 281   0.0000       2.632743        71.6406 
 282   0.0000       2.654140        72.2228 
 283   0.0000       2.655914        72.2711 
 284   0.0000       2.669149        72.6312 
 285   0.0000       2.720164        74.0194 
 286   0.0000       2.720549        74.0299 
 287   0.0000       2.739901        74.5565 
 288   0.0000       2.747460        74.7622 
 289   0.0000       2.758979        75.0756 
 290   0.0000       2.777877        75.5899 
 291   0.0000       2.783642        75.7467 
 292   0.0000       2.794653        76.0464 
 293   0.0000       2.798002        76.1375 
 294   0.0000       2.808631        76.4267 
 295   0.0000       2.814305        76.5811 
 296   0.0000       2.829242        76.9876 
 297   0.0000       2.837782        77.2200 
 298   0.0000       2.849195        77.5305 
 299   0.0000       2.862389        77.8896 
 300   0.0000       2.869951        78.0953 
 301   0.0000       2.870752        78.1171 
 302   0.0000       2.894477        78.7627 
 303   0.0000       2.903416        79.0060 
 304   0.0000       2.911337        79.2215 
 305   0.0000       2.927739        79.6678 
 306   0.0000       2.932680        79.8023 
 307   0.0000       2.948937        80.2446 
 308   0.0000       2.950653        80.2913 
 309   0.0000       2.955297        80.4177 
 310   0.0000       2.964189        80.6597 
 311   0.0000       2.973753        80.9199 
 312   0.0000       2.984200        81.2042 
 313   0.0000       2.990304        81.3703 
 314   0.0000       3.025862        82.3379 
 315   0.0000       3.041352        82.7594 
 316   0.0000       3.047334        82.9222 
 317   0.0000       3.057076        83.1873 
 318   0.0000       3.059040        83.2407 
 319   0.0000       3.073812        83.6427 
 320   0.0000       3.097354        84.2833 
 321   0.0000       3.101334        84.3916 
 322   0.0000       3.107149        84.5498 
 323   0.0000       3.119726        84.8920 
 324   0.0000       3.127106        85.0929 
 325   0.0000       3.141562        85.4862 
 326   0.0000       3.148552        85.6764 
 327   0.0000       3.151769        85.7640 
 328   0.0000       3.162790        86.0639 
 329   0.0000       3.171512        86.3012 
 330   0.0000       3.175396        86.4069 
 331   0.0000       3.183318        86.6225 
 332   0.0000       3.197327        87.0037 
 333   0.0000       3.202595        87.1470 
 334   0.0000       3.211567        87.3912 
 335   0.0000       3.216814        87.5340 
 336   0.0000       3.221156        87.6521 
 337   0.0000       3.230433        87.9046 
 338   0.0000       3.238767        88.1313 
 339   0.0000       3.263358        88.8005 
 340   0.0000       3.278358        89.2086 
 341   0.0000       3.288725        89.4908 
 342   0.0000       3.306807        89.9828 
 343   0.0000       3.329259        90.5938 
 344   0.0000       3.330377        90.6242 
 345   0.0000       3.339937        90.8843 
 346   0.0000       3.346708        91.0685 
 347   0.0000       3.350409        91.1693 
 348   0.0000       3.374812        91.8333 
 349   0.0000       3.387434        92.1768 
 350   0.0000       3.394087        92.3578 
 351   0.0000       3.407064        92.7109 
 352   0.0000       3.417083        92.9836 
 353   0.0000       3.419998        93.0629 
 354   0.0000       3.429631        93.3250 
 355   0.0000       3.447515        93.8116 
 356   0.0000       3.451283        93.9142 
 357   0.0000       3.474758        94.5530 
 358   0.0000       3.478740        94.6613 
 359   0.0000       3.492559        95.0374 
 360   0.0000       3.516172        95.6799 
 361   0.0000       3.532963        96.1368 
 362   0.0000       3.536925        96.2446 
 363   0.0000       3.545744        96.4846 
 364   0.0000       3.546736        96.5116 
 365   0.0000       3.566798        97.0575 
 366   0.0000       3.567924        97.0881 
 367   0.0000       3.573340        97.2355 
 368   0.0000       3.576709        97.3272 
 369   0.0000       3.590899        97.7133 
 370   0.0000       3.600951        97.9869 
 371   0.0000       3.624134        98.6177 
 372   0.0000       3.635566        98.9288 
 373   0.0000       3.637023        98.9684 
 374   0.0000       3.679371       100.1208 
 375   0.0000       3.686086       100.3035 
 376   0.0000       3.699792       100.6764 
 377   0.0000       3.708188       100.9049 
 378   0.0000       3.715305       101.0986 
 379   0.0000       3.727883       101.4409 
 380   0.0000       3.732954       101.5788 
 381   0.0000       3.753764       102.1451 
 382   0.0000       3.763497       102.4100 
 383   0.0000       3.782824       102.9359 
 384   0.0000       3.800768       103.4242 
 385   0.0000       3.803821       103.5072 
 386   0.0000       3.808706       103.6401 
 387   0.0000       3.819803       103.9421 
 388   0.0000       3.842878       104.5700 
 389   0.0000       3.850532       104.7783 
 390   0.0000       3.862090       105.0928 
 391   0.0000       3.886195       105.7487 
 392   0.0000       3.917622       106.6039 
 393   0.0000       3.928128       106.8898 
 394   0.0000       3.934243       107.0562 
 395   0.0000       3.964170       107.8706 
 396   0.0000       3.986250       108.4714 
 397   0.0000       3.990138       108.5772 
 398   0.0000       4.004772       108.9754 
 399   0.0000       4.014876       109.2503 
 400   0.0000       4.019717       109.3821 
 401   0.0000       4.021759       109.4376 
 402   0.0000       4.031539       109.7037 
 403   0.0000       4.035357       109.8076 
 404   0.0000       4.060979       110.5049 
 405   0.0000       4.071808       110.7995 
 406   0.0000       4.072956       110.8308 
 407   0.0000       4.077209       110.9465 
 408   0.0000       4.100586       111.5826 
 409   0.0000       4.109782       111.8329 
 410   0.0000       4.127273       112.3088 
 411   0.0000       4.148963       112.8990 
 412   0.0000       4.163023       113.2816 
 413   0.0000       4.172153       113.5301 
 414   0.0000       4.185337       113.8888 
 415   0.0000       4.187924       113.9592 
 416   0.0000       4.197610       114.2228 
 417   0.0000       4.224722       114.9605 
 418   0.0000       4.228898       115.0742 
 419   0.0000       4.246391       115.5502 
 420   0.0000       4.253003       115.7301 
 421   0.0000       4.257455       115.8512 
 422   0.0000       4.273758       116.2949 
 423   0.0000       4.288421       116.6939 
 424   0.0000       4.292260       116.7983 
 425   0.0000       4.309903       117.2784 
 426   0.0000       4.342143       118.1557 
 427   0.0000       4.353540       118.4658 
 428   0.0000       4.359080       118.6166 
 429   0.0000       4.403807       119.8337 
 430   0.0000       4.416091       120.1679 
 431   0.0000       4.450369       121.1007 
 432   0.0000       4.462630       121.4343 
 433   0.0000       4.484356       122.0255 
 434   0.0000       4.492799       122.2553 
 435   0.0000       4.500812       122.4733 
 436   0.0000       4.507239       122.6482 
 437   0.0000       4.517057       122.9154 
 438   0.0000       4.585378       124.7745 
 439   0.0000       4.601027       125.2003 
 440   0.0000       4.617901       125.6595 
 441   0.0000       4.633695       126.0893 
 442   0.0000       4.634369       126.1076 
 443   0.0000       4.653162       126.6190 
 444   0.0000       4.685798       127.5070 
 445   0.0000       4.700967       127.9198 
 446   0.0000       4.703741       127.9953 
 447   0.0000       4.734377       128.8289 
 448   0.0000       4.741908       129.0339 
 449   0.0000       4.771480       129.8386 
 450   0.0000       4.795968       130.5049 
 451   0.0000       4.802725       130.6888 
 452   0.0000       4.824597       131.2839 
 453   0.0000       4.836705       131.6134 
 454   0.0000       4.841186       131.7354 
 455   0.0000       4.857091       132.1682 
 456   0.0000       4.861785       132.2959 
 457   0.0000       4.881103       132.8216 
 458   0.0000       4.884624       132.9174 
 459   0.0000       4.890683       133.0822 
 460   0.0000       4.933056       134.2353 
 461   0.0000       4.937299       134.3507 
 462   0.0000       4.964643       135.0948 
 463   0.0000       4.975753       135.3971 
 464   0.0000       5.000786       136.0783 
 465   0.0000       5.021239       136.6348 
 466   0.0000       5.038214       137.0968 
 467   0.0000       5.052756       137.4925 
 468   0.0000       5.088196       138.4568 
 469   0.0000       5.131361       139.6314 
 470   0.0000       5.138885       139.8362 
 471   0.0000       5.165194       140.5521 
 472   0.0000       5.168829       140.6510 
 473   0.0000       5.174064       140.7934 
 474   0.0000       5.177457       140.8858 
 475   0.0000       5.208033       141.7178 
 476   0.0000       5.217203       141.9673 
 477   0.0000       5.229650       142.3060 
 478   0.0000       5.260674       143.1502 
 479   0.0000       5.269262       143.3839 
 480   0.0000       5.275923       143.5652 
 481   0.0000       5.282965       143.7568 
 482   0.0000       5.318309       144.7185 
 483   0.0000       5.344809       145.4397 
 484   0.0000       5.345686       145.4635 
 485   0.0000       5.364112       145.9649 
 486   0.0000       5.378704       146.3620 
 487   0.0000       5.389068       146.6440 
 488   0.0000       5.411359       147.2506 
 489   0.0000       5.422694       147.5590 
 490   0.0000       5.450239       148.3085 
 491   0.0000       5.453118       148.3869 
 492   0.0000       5.461591       148.6174 
 493   0.0000       5.470880       148.8702 
 494   0.0000       5.479671       149.1094 
 495   0.0000       5.532927       150.5586 
 496   0.0000       5.537171       150.6741 
 497   0.0000       5.571580       151.6104 
 498   0.0000       5.583351       151.9307 
 499   0.0000       5.596305       152.2832 
 500   0.0000       5.617898       152.8708 
 501   0.0000       5.630162       153.2045 
 502   0.0000       5.648839       153.7127 
 503   0.0000       5.649723       153.7368 
 504   0.0000       5.672277       154.3505 
 505   0.0000       5.684723       154.6892 
 506   0.0000       5.716136       155.5440 
 507   0.0000       5.753537       156.5617 
 508   0.0000       5.759073       156.7123 
 509   0.0000       5.773176       157.0961 
 510   0.0000       5.815637       158.2515 
 511   0.0000       5.817947       158.3144 
 512   0.0000       5.897873       160.4893 
 513   0.0000       5.919381       161.0746 
 514   0.0000       5.948951       161.8792 
 515   0.0000       5.956090       162.0734 
 516   0.0000       5.957505       162.1119 
 517   0.0000       6.006488       163.4448 
 518   0.0000       6.027166       164.0075 
 519   0.0000       6.062965       164.9817 
 520   0.0000       6.091073       165.7465 
 521   0.0000       6.137160       167.0006 
 522   0.0000       6.137954       167.0222 
 523   0.0000       6.146805       167.2631 
 524   0.0000       6.295848       171.3187 
 525   0.0000       6.310418       171.7152 
 526   0.0000       6.336588       172.4273 
 527   0.0000       6.343734       172.6218 
 528   0.0000       6.345493       172.6696 
 529   0.0000       6.377162       173.5314 
 530   0.0000       6.398412       174.1096 
 531   0.0000       6.420261       174.7042 
 532   0.0000       6.448239       175.4655 
 533   0.0000       6.453698       175.6140 
 534   0.0000       6.495876       176.7618 
 535   0.0000       6.530489       177.7036 
 536   0.0000       6.560345       178.5161 
 537   0.0000       6.575973       178.9413 
 538   0.0000       6.582432       179.1171 
 539   0.0000       6.695015       182.1806 
 540   0.0000       6.715095       182.7270 
 541   0.0000       6.717213       182.7847 
 542   0.0000       6.761188       183.9813 
 543   0.0000       6.766648       184.1299 
 544   0.0000       6.787018       184.6842 
 545   0.0000       6.816287       185.4806 
 546   0.0000       6.835453       186.0021 
 547   0.0000       6.854147       186.5108 
 548   0.0000       6.857477       186.6014 
 549   0.0000       6.945535       188.9976 
 550   0.0000       7.086600       192.8362 
 551   0.0000       7.110693       193.4918 
 552   0.0000       7.173027       195.1880 
 553   0.0000       7.210678       196.2125 
 554   0.0000       7.233754       196.8405 
 555   0.0000       7.250128       197.2860 
 556   0.0000       7.480433       203.5529 
 557   0.0000       7.501974       204.1391 
 558   0.0000      23.112009       628.9098 
 559   0.0000      23.145235       629.8139 
 560   0.0000      23.255802       632.8225 
 561   0.0000      23.274702       633.3368 
 562   0.0000      23.420972       637.3171 
 563   0.0000      23.441486       637.8753 
 564   0.0000      32.661429       888.7627 
 565   0.0000      32.946193       896.5115 
 566   0.0000      33.009808       898.2425 
 567   0.0000      43.853240      1193.3073 
 568   0.0000      43.855700      1193.3743 
 569   0.0000      43.874681      1193.8908 
 570   0.0000      43.888779      1194.2744 

                    ********************************
                    * MULLIKEN POPULATION ANALYSIS *
                    ********************************

-----------------------
MULLIKEN ATOMIC CHARGES
-----------------------
   0 N :   -0.192676
   1 H :    0.188688
   2 C :   -0.063089
   3 C :    0.301510
   4 H :    0.138739
   5 H :    0.138941
   6 O :   -0.279021
   7 C :    0.291922
   8 C :   -0.111168
   9 O :   -0.397058
  10 N :   -0.171145
  11 H :    0.145411
  12 H :    0.145284
  13 H :    0.203265
  14 C :    0.273235
  15 C :   -0.153703
  16 O :   -0.358124
  17 H :    0.169430
  18 H :    0.169455
  19 O :   -0.303933
  20 H :    0.248839
  21 N :   -0.096503
  22 H :    0.236525
  23 H :    0.238756
  24 H :    0.236420
Sum of atomic charges:    1.0000000

--------------------------------
MULLIKEN REDUCED ORBITAL CHARGES
--------------------------------
  0 N s       :     3.421628  s :     3.421628
      pz      :     1.604480  p :     3.712469
      px      :     1.043340
      py      :     1.064649
      dz2     :     0.004793  d :     0.054735
      dxz     :     0.012254
      dyz     :     0.003496
      dx2y2   :     0.017952
      dxy     :     0.016239
      f0      :     0.000684  f :     0.003844
      f+1     :     0.000633
      f-1     :     0.000464
      f+2     :     0.000149
      f-2     :     0.000427
      f+3     :     0.000759
      f-3     :     0.000728
  1 H s       :     0.740574  s :     0.740574
      pz      :     0.025081  p :     0.065242
      px      :     0.016085
      py      :     0.024076
      dz2     :     0.000402  d :     0.005497
      dxz     :     0.000069
      dyz     :     0.002200
      dx2y2   :     0.001276
      dxy     :     0.001549
  2 C s       :     3.161010  s :     3.161010
      pz      :     1.099523  p :     2.784610
      px      :     0.712316
      py      :     0.972771
      dz2     :     0.013138  d :     0.109511
      dxz     :     0.031433
      dyz     :     0.024336
      dx2y2   :     0.019656
      dxy     :     0.020948
      f0      :     0.001077  f :     0.007959
      f+1     :     0.000846
      f-1     :     0.000743
      f+2     :     0.001232
      f-2     :     0.000588
      f+3     :     0.001765
      f-3     :     0.001708
  3 C s       :     3.072465  s :     3.072465
      pz      :     0.741233  p :     2.332471
      px      :     0.808187
      py      :     0.783051
      dz2     :     0.008725  d :     0.269961
      dxz     :     0.060576
      dyz     :     0.036079
      dx2y2   :     0.051035
      dxy     :     0.113545
      f0      :     0.003045  f :     0.023594
      f+1     :     0.001487
      f-1     :     0.001117
      f+2     :     0.003408
      f-2     :     0.001946
      f+3     :     0.004133
      f-3     :     0.008457
  4 H s       :     0.825027  s :     0.825027
      pz      :     0.015102  p :     0.034146
      px      :     0.007199
      py      :     0.011845
      dz2     :     0.000680  d :     0.002088
      dxz     :     0.000450
      dyz     :     0.000327
      dx2y2   :     0.000290
      dxy     :     0.000341
  5 H s       :     0.824836  s :     0.824836
      pz      :     0.015091  p :     0.034136
      px      :     0.007236
      py      :     0.011808
      dz2     :     0.000682  d :     0.002088
      dxz     :     0.000444
      dyz     :     0.000327
      dx2y2   :     0.000295
      dxy     :     0.000340
  6 O s       :     3.801221  s :     3.801221
      pz      :     1.375393  p :     4.443067
      px      :     1.318385
      py      :     1.749289
      dz2     :     0.002785  d :     0.032820
      dxz     :     0.012181
      dyz     :     0.000176
      dx2y2   :     0.009264
      dxy     :     0.008413
      f0      :     0.000201  f :     0.001912
      f+1     :     0.000177
      f-1     :     0.000025
      f+2     :     0.000468
      f-2     :     0.000030
      f+3     :     0.000463
      f-3     :     0.000548
[...]
     53      -0.582751   0.000575  -0.000023  -0.573197   0.000784   0.004570
     54      -0.140545  -0.000267  -0.000003   0.138900   0.001489  -0.003056
     55      -0.370538  -0.000090   0.000025   0.383425   0.001396   0.001667
     56       0.583533   0.000624  -0.000016  -0.573130  -0.000775  -0.004544
     57       0.000001  -0.000000  -0.000001   0.000000  -0.000038   0.000007
     58      -0.000000  -0.000000  -0.000000   0.000000  -0.000016  -0.000013
     59      -0.000000  -0.000000   0.000145   0.000000  -0.000000   0.000000
     60       0.000049  -0.000001  -0.000003   0.000000   0.000968  -0.000229
     61      -0.000040   0.000000  -0.000001  -0.000000  -0.000757   0.000231
     62       0.000000  -0.000040   0.001216  -0.000003   0.000007  -0.000002
     63      -0.000741  -0.000000  -0.000000   0.000002  -0.003563   0.049554
     64       0.000386  -0.000001   0.000000  -0.000000   0.001671  -0.031982
     65       0.000002   0.000001   0.000001  -0.002411   0.000001  -0.000009
     66      -0.001267   0.000003   0.000005  -0.000784   0.025090  -0.337554
     67       0.001806   0.000036  -0.000002   0.006183  -0.015594   0.209954
     68       0.005149  -0.000051  -0.000005   0.010358  -0.043179   0.581161
     69      -0.006721  -0.000002  -0.000000  -0.000018  -0.004424   0.012773
     70      -0.025019   0.000007  -0.000001  -0.000026   0.009034   0.025249
     71      -0.000015  -0.000236  -0.000002   0.000910  -0.000005   0.000014
     72      -0.001261  -0.000003  -0.000005   0.000764   0.024992  -0.336199
     73       0.001829  -0.000037   0.000002  -0.006175  -0.015603   0.210050
     74      -0.005174  -0.000050  -0.000005   0.010320   0.043169  -0.581013
                 72         73         74    
      0       0.000000   0.016388   0.000320
      1       0.000000   0.071864  -0.000125
      2      -0.000002   0.000033   0.000002
      3      -0.000001  -0.225504  -0.000472
      4      -0.000003  -0.971308  -0.001120
      5       0.000030  -0.000439  -0.000000
      6      -0.000000  -0.000738   0.000057
      7      -0.000000  -0.000014  -0.000508
      8       0.000002  -0.000003   0.000001
      9      -0.000000   0.000258  -0.000341
     10       0.000000  -0.000541   0.002659
     11       0.000001   0.000002  -0.000008
     12      -0.000005  -0.004047   0.000455
     13      -0.000005  -0.002389   0.000666
     14      -0.000002  -0.004067   0.000545
     15       0.000005  -0.004081   0.000461
     16       0.000005  -0.002358   0.000661
     17      -0.000002   0.004020  -0.000540
     18       0.000000   0.000109  -0.000829
     19      -0.000000   0.000125  -0.000473
     20      -0.000001   0.000000  -0.000003
     21      -0.000000   0.001130  -0.000159
     22       0.000000  -0.000303   0.000160
     23       0.000002   0.000005  -0.000001
     24      -0.000000  -0.000198   0.000002
     25       0.000000   0.000237   0.000022
     26       0.000002  -0.000001   0.000000
     27       0.000000   0.000187   0.000028
     28      -0.000000  -0.001433  -0.000085
     29      -0.000005   0.000001   0.000000
     30       0.000000   0.000653   0.000100
     31      -0.000000   0.000843   0.000063
     32      -0.000032   0.000002   0.000000
     33       0.000028   0.000087   0.000000
     34      -0.000008  -0.001182  -0.000122
     35       0.000024  -0.000387  -0.000113
     36      -0.000029   0.000084  -0.000001
     37       0.000007  -0.001192  -0.000123
     38       0.000025   0.000393   0.000113
     39      -0.000001  -0.007625  -0.000748
     40      -0.000001  -0.011175  -0.000874
     41       0.000052  -0.000024  -0.000003
     42       0.000001  -0.000276  -0.000083
     43       0.000000  -0.000099  -0.000020
     44      -0.000067  -0.000000  -0.000000
     45       0.000003  -0.000008  -0.000005
     46      -0.000000  -0.000011  -0.000005
     47      -0.000979   0.000000   0.000000
     48       0.000000   0.000076   0.000029
     49      -0.000000   0.000066   0.000016
     50       0.000011   0.000000   0.000000
     51       0.002999   0.000011   0.000013
     52       0.006222   0.000059   0.000023
     53       0.009667   0.000093   0.000029
     54      -0.003029   0.000012   0.000014
     55      -0.006221   0.000059   0.000023
     56       0.009689  -0.000094  -0.000029
     57      -0.000000  -0.000179  -0.041881
     58       0.000000   0.000394   0.045078
     59      -0.000001  -0.000002  -0.000312
     60       0.000000  -0.000779   0.677772
     61      -0.000000   0.001367  -0.732667
     62       0.000017  -0.000005   0.005052
     63       0.000041   0.000097   0.000027
     64       0.000042  -0.000075  -0.000027
     65      -0.082124   0.000000   0.000000
     66      -0.347540  -0.000550  -0.000145
     67       0.220322   0.000306   0.000076
     68       0.571464   0.000921   0.000227
     69       0.000002  -0.000256  -0.000137
     70      -0.000026   0.000405   0.000237
     71      -0.009561  -0.000000  -0.000000
     72       0.346939  -0.000550  -0.000145
     73      -0.220878   0.000307   0.000077
     74       0.572565  -0.000924  -0.000227


-----------
IR SPECTRUM
-----------

 Mode   freq       eps      Int      T**2         TX        TY        TZ
       cm**-1   L/(mol*cm) km/mol    a.u.
----------------------------------------------------------------------------
  6:     13.87   0.000164    0.83  0.003697  (-0.000043  0.000263 -0.060799)
  7:     31.95   0.000012    0.06  0.000117  (-0.000295 -0.000068 -0.010797)
  8:     39.77   0.001710    8.64  0.013418  ( 0.000564  0.000049 -0.115834)
  9:     58.15   0.001099    5.55  0.005898  ( 0.068126  0.035451  0.000654)
 10:     73.10   0.000704    3.56  0.003004  (-0.000276 -0.000100  0.054809)
 11:     91.50   0.003533   17.85  0.012049  (-0.000499  0.000003  0.109765)
 12:    137.75   0.003291   16.63  0.007455  (-0.084073 -0.019649 -0.000757)
 13:    153.92   0.000302    1.53  0.000612  (-0.000652  0.000014  0.024737)
 14:    186.85   0.002947   14.90  0.004923  (-0.000116 -0.000205  0.070161)
 15:    215.13   0.001736    8.77  0.002518  (-0.044587  0.023019  0.000096)
 16:    294.12   0.002503   12.65  0.002656  (-0.044260  0.026399 -0.000064)
 17:    314.52   0.000030    0.15  0.000029  (-0.001641  0.000630 -0.005125)
 18:    314.62   0.016756   84.68  0.016620  ( 0.120452 -0.045948  0.000223)
 19:    398.69   0.030315  153.20  0.023728  (-0.120990  0.095340 -0.000216)
 20:    470.77   0.015099   76.31  0.010009  (-0.000278  0.000084  0.100045)
 21:    482.97   0.001097    5.54  0.000709  ( 0.024062 -0.011390 -0.000434)
 22:    530.14   0.001006    5.08  0.000592  ( 0.000177 -0.000035 -0.024332)
 23:    565.64   0.004127   20.86  0.002277  (-0.000290 -0.000171  0.047714)
 24:    576.27   0.002085   10.54  0.001129  (-0.028592 -0.017650 -0.000403)
 25:    598.61   0.012789   64.63  0.006667  (-0.038107  0.072215 -0.000330)
 26:    617.26   0.000889    4.49  0.000449  ( 0.000030 -0.000000 -0.021200)
 27:    671.96   0.019944  100.79  0.009262  ( 0.000525 -0.000207 -0.096239)
 28:    691.73   0.002202   11.13  0.000993  ( 0.030898  0.006215  0.000111)
 29:    738.95   0.010735   54.25  0.004533  (-0.000158 -0.000250  0.067330)
 30:    749.39   0.000824    4.16  0.000343  ( 0.012584  0.013578  0.000528)
 31:    869.99   0.001411    7.13  0.000506  ( 0.022304 -0.002965  0.000071)
 32:    931.69   0.002195   11.09  0.000735  ( 0.000095 -0.000036 -0.027115)
 33:    960.10   0.008214   41.51  0.002670  (-0.030176  0.041943 -0.000031)
 34:   1001.09   0.018191   91.93  0.005670  (-0.074819  0.008518 -0.000326)
 35:   1011.97   0.000677    3.42  0.000209  ( 0.000854 -0.000142 -0.014419)
 36:   1023.23   0.000016    0.08  0.000005  ( 0.000108 -0.000053 -0.002220)
 37:   1028.92   0.001223    6.18  0.000371  (-0.013338  0.013896 -0.000044)
 38:   1111.11   0.016666   84.23  0.004681  ( 0.031965 -0.060491  0.000023)
 39:   1114.25   0.000224    1.13  0.000063  ( 0.000206 -0.000339  0.007915)
 40:   1120.54   0.013856   70.02  0.003859  (-0.053189  0.032088 -0.000127)
 41:   1164.38   0.003484   17.61  0.000934  ( 0.017139  0.025300  0.000007)
 42:   1199.93   0.045643  230.66  0.011870  ( 0.009878  0.108502 -0.000150)
 43:   1253.80   0.001842    9.31  0.000459  (-0.013832 -0.016345 -0.000322)
 44:   1255.51   0.000225    1.14  0.000056  (-0.000395 -0.000638  0.007438)
 45:   1269.78   0.000355    1.79  0.000087  (-0.000160 -0.000043  0.009338)
 46:   1274.56   0.015211   76.87  0.003724  (-0.060887  0.004102 -0.000301)
 47:   1321.85   0.000728    3.68  0.000172  (-0.000029  0.000039  0.013113)
 48:   1345.25   0.003482   17.60  0.000808  ( 0.025010  0.013504 -0.000001)
 49:   1367.45   0.003137   15.85  0.000716  (-0.000741  0.026745 -0.000024)
 50:   1393.85   0.013421   67.82  0.003005  (-0.008112  0.054211 -0.000151)
 51:   1418.87   0.006028   30.46  0.001326  ( 0.034124 -0.012696  0.000114)
 52:   1427.45   0.101861  514.76  0.022268  (-0.148211 -0.017373 -0.000277)
 53:   1496.91   0.001635    8.26  0.000341  (-0.002548  0.018286 -0.000026)
 54:   1500.95   0.017896   90.44  0.003721  (-0.052818  0.030514 -0.000146)
 55:   1506.56   0.003087   15.60  0.000639  (-0.022270 -0.011979 -0.000100)
 56:   1582.56   0.144830  731.91  0.028559  ( 0.150627 -0.076616  0.000560)
 57:   1597.53   0.006789   34.31  0.001326  ( 0.034801  0.010722  0.000264)
 58:   1650.61   0.004769   24.10  0.000902  (-0.018770  0.023436  0.000147)
 59:   1666.66   0.006007   30.36  0.001125  (-0.000057  0.000143 -0.033537)
 60:   1777.59   0.055013  278.01  0.009658  (-0.011761 -0.097567  0.000062)
 61:   1793.88   0.069194  349.68  0.012037  ( 0.109663 -0.003318  0.000271)
 62:   1888.31   0.068771  347.54  0.011365  ( 0.104882  0.019098  0.000469)
 63:   2822.01   0.095886  484.57  0.010603  (-0.057981  0.085097 -0.000100)
 64:   3091.65   0.002103   10.63  0.000212  ( 0.012067 -0.008162  0.000028)
 65:   3100.30   0.001626    8.22  0.000164  ( 0.012348 -0.003348  0.000053)
 66:   3134.17   0.000891    4.50  0.000089  ( 0.005981 -0.007278  0.000022)
 67:   3136.78   0.000157    0.79  0.000016  (-0.000004  0.000007 -0.003950)
 68:   3138.68   0.000037    0.19  0.000004  (-0.000004 -0.000022  0.001929)
 69:   3195.63   0.000297    1.50  0.000029  ( 0.000012 -0.000001 -0.005387)
 70:   3496.44   0.056985  287.98  0.005086  ( 0.068827  0.018674  0.000206)
 71:   3516.79   0.020617  104.19  0.001829  (-0.036241  0.022717 -0.000014)
 72:   3578.41   0.020501  103.60  0.001788  (-0.000011 -0.000025  0.042283)
 73:   3666.94   0.020367  102.93  0.001733  ( 0.011867 -0.039905  0.000080)
 74:   3803.24   0.025936  131.07  0.002128  ( 0.021604 -0.040760  0.000197)

* The epsilon (eps) is given for a Dirac delta lineshape.
** The dipole moment derivative (T) already includes vibrational overlap.

The first frequency considered to be a vibration is 6
The total number of vibrations considered is 69


--------------------------
THERMOCHEMISTRY AT 298.15K
--------------------------

Temperature         ... 298.15 K
Pressure            ... 1.00 atm
Total Mass          ... 190.18 AMU

Throughout the following assumptions are being made:
  (1) The electronic state is orbitally nondegenerate
  (2) There are no thermally accessible electronically excited states
  (3) Hindered rotations indicated by low frequency modes are not
      treated as such but are treated as vibrations and this may
      cause some error
  (4) All equations used are the standard statistical mechanics
      equations for an ideal gas
  (5) All vibrations are strictly harmonic

freq.      13.87  E(vib)   ...       0.57 
freq.      31.95  E(vib)   ...       0.55 
freq.      39.77  E(vib)   ...       0.54 
freq.      58.15  E(vib)   ...       0.51 
freq.      73.10  E(vib)   ...       0.49 
freq.      91.50  E(vib)   ...       0.47 
freq.     137.75  E(vib)   ...       0.42 
freq.     153.92  E(vib)   ...       0.40 
freq.     186.85  E(vib)   ...       0.36 
freq.     215.13  E(vib)   ...       0.34 
freq.     294.12  E(vib)   ...       0.27 
freq.     314.52  E(vib)   ...       0.25 
freq.     314.62  E(vib)   ...       0.25 
freq.     398.69  E(vib)   ...       0.19 
freq.     470.77  E(vib)   ...       0.15 
freq.     482.97  E(vib)   ...       0.15 
freq.     530.14  E(vib)   ...       0.13 
freq.     565.64  E(vib)   ...       0.11 
freq.     576.27  E(vib)   ...       0.11 
freq.     598.61  E(vib)   ...       0.10 
freq.     617.26  E(vib)   ...       0.09 
freq.     671.96  E(vib)   ...       0.08 
freq.     691.73  E(vib)   ...       0.07 
freq.     738.95  E(vib)   ...       0.06 
freq.     749.39  E(vib)   ...       0.06 
freq.     869.99  E(vib)   ...       0.04 
freq.     931.69  E(vib)   ...       0.03 
freq.     960.10  E(vib)   ...       0.03 
freq.    1001.09  E(vib)   ...       0.02 
freq.    1011.97  E(vib)   ...       0.02 
freq.    1023.23  E(vib)   ...       0.02 
freq.    1028.92  E(vib)   ...       0.02 
freq.    1111.11  E(vib)   ...       0.01 
freq.    1114.25  E(vib)   ...       0.01 
freq.    1120.54  E(vib)   ...       0.01 
freq.    1164.38  E(vib)   ...       0.01 
freq.    1199.93  E(vib)   ...       0.01 
freq.    1253.80  E(vib)   ...       0.01 
freq.    1255.51  E(vib)   ...       0.01 
freq.    1269.78  E(vib)   ...       0.01 
freq.    1274.56  E(vib)   ...       0.01 
freq.    1321.85  E(vib)   ...       0.01 
freq.    1345.25  E(vib)   ...       0.01 
freq.    1367.45  E(vib)   ...       0.01 
freq.    1393.85  E(vib)   ...       0.00 
freq.    1418.87  E(vib)   ...       0.00 
freq.    1427.45  E(vib)   ...       0.00 
freq.    1496.91  E(vib)   ...       0.00 
freq.    1500.95  E(vib)   ...       0.00 
freq.    1506.56  E(vib)   ...       0.00 
freq.    1582.56  E(vib)   ...       0.00 
freq.    1597.53  E(vib)   ...       0.00 
freq.    1650.61  E(vib)   ...       0.00 
freq.    1666.66  E(vib)   ...       0.00 
freq.    1777.59  E(vib)   ...       0.00 
freq.    1793.88  E(vib)   ...       0.00 
freq.    1888.31  E(vib)   ...       0.00 
freq.    2822.01  E(vib)   ...       0.00 
freq.    3091.65  E(vib)   ...       0.00 
freq.    3100.30  E(vib)   ...       0.00 
freq.    3134.17  E(vib)   ...       0.00 
freq.    3136.78  E(vib)   ...       0.00 
freq.    3138.68  E(vib)   ...       0.00 
freq.    3195.63  E(vib)   ...       0.00 
freq.    3496.44  E(vib)   ...       0.00 
freq.    3516.79  E(vib)   ...       0.00 
freq.    3578.41  E(vib)   ...       0.00 
freq.    3666.94  E(vib)   ...       0.00 
freq.    3803.24  E(vib)   ...       0.00 

------------
INNER ENERGY
------------

The inner energy is: U= E(el) + E(ZPE) + E(vib) + E(rot) + E(trans)
    E(el)   - is the total energy from the electronic structure calculation
              = E(kin-el) + E(nuc-el) + E(el-el) + E(nuc-nuc)
    E(ZPE)  - the the zero temperature vibrational energy from the frequency calculation
    E(vib)  - the the finite temperature correction to E(ZPE) due to population
              of excited vibrational states
    E(rot)  - is the rotational thermal energy
    E(trans)- is the translational thermal energy

Summary of contributions to the inner energy U:
Electronic energy                ...   -701.34203063 Eh
Zero point energy                ...      0.20737209 Eh     130.13 kcal/mol
Thermal vibrational correction   ...      0.01127447 Eh       7.07 kcal/mol
Thermal rotational correction    ...      0.00141627 Eh       0.89 kcal/mol
Thermal translational correction ...      0.00141627 Eh       0.89 kcal/mol
-----------------------------------------------------------------------
Total thermal energy                   -701.12055153 Eh


Summary of corrections to the electronic energy:
(perhaps to be used in another calculation)
Total thermal correction                  0.01410701 Eh       8.85 kcal/mol
Non-thermal (ZPE) correction              0.20737209 Eh     130.13 kcal/mol
-----------------------------------------------------------------------
Total correction                          0.22147910 Eh     138.98 kcal/mol


--------
ENTHALPY
--------

The enthalpy is H = U + kB*T
                kB is Boltzmann's constant
Total free energy                 ...   -701.12055153 Eh 
Thermal Enthalpy correction       ...      0.00094421 Eh       0.59 kcal/mol
-----------------------------------------------------------------------
Total Enthalpy                    ...   -701.11960732 Eh


Note: Only C1 symmetry has been detected, increase convergence thresholds 
      if your molecule has a higher symmetry. Symmetry factor of 1.0 is   
      used for the rotational entropy correction. 
 

Note: Rotational entropy computed according to Herzberg 
Infrared and Raman Spectra, Chapter V,1, Van Nostrand Reinhold, 1945 
Point Group:  C1, Symmetry Number:   1  
Rotational constants in cm-1:     0.108570     0.007522     0.007070 

Vibrational entropy computed according to the QRRHO of S. Grimme
Chem.Eur.J. 2012 18 9955


-------
ENTROPY
-------

The entropy contributions are T*S = T*(S(el)+S(vib)+S(rot)+S(trans))
     S(el)   - electronic entropy
     S(vib)  - vibrational entropy
     S(rot)  - rotational entropy
     S(trans)- translational entropy
The entropies will be listed as multiplied by the temperature to get
units of energy

Electronic entropy                ...      0.00000000 Eh      0.00 kcal/mol
Vibrational entropy               ...      0.02084638 Eh     13.08 kcal/mol
Rotational entropy                ...      0.01520524 Eh      9.54 kcal/mol
Translational entropy             ...      0.01978162 Eh     12.41 kcal/mol
-----------------------------------------------------------------------
Final entropy term                ...      0.05583323 Eh     35.04 kcal/mol

In case the symmetry of your molecule has not been determined correctly
or in case you have a reason to use a different symmetry number we print 
out the resulting rotational entropy values for sn=1,12 :
 --------------------------------------------------------
|  sn= 1 | S(rot)=       0.01520524 Eh      9.54 kcal/mol|
|  sn= 2 | S(rot)=       0.01455078 Eh      9.13 kcal/mol|
|  sn= 3 | S(rot)=       0.01416795 Eh      8.89 kcal/mol|
|  sn= 4 | S(rot)=       0.01389633 Eh      8.72 kcal/mol|
|  sn= 5 | S(rot)=       0.01368564 Eh      8.59 kcal/mol|
|  sn= 6 | S(rot)=       0.01351349 Eh      8.48 kcal/mol|
|  sn= 7 | S(rot)=       0.01336795 Eh      8.39 kcal/mol|
|  sn= 8 | S(rot)=       0.01324187 Eh      8.31 kcal/mol|
|  sn= 9 | S(rot)=       0.01313066 Eh      8.24 kcal/mol|
|  sn=10 | S(rot)=       0.01303118 Eh      8.18 kcal/mol|
|  sn=11 | S(rot)=       0.01294119 Eh      8.12 kcal/mol|
|  sn=12 | S(rot)=       0.01285904 Eh      8.07 kcal/mol|
 --------------------------------------------------------


-------------------
GIBBS FREE ENERGY
-------------------

The Gibbs free energy is G = H - T*S

Total enthalpy                    ...   -701.11960732 Eh 
Total entropy correction          ...     -0.05583323 Eh    -35.04 kcal/mol
-----------------------------------------------------------------------
Final Gibbs free energy         ...   -701.17544055 Eh

For completeness - the Gibbs free energy minus the electronic energy
G-E(el)                           ...      0.16659007 Eh    104.54 kcal/mol


Timings for individual modules:

Sum of individual times         ...     5041.339 sec (=  84.022 min)
GTO integral calculation        ...       19.337 sec (=   0.322 min)   0.4 %
SCF iterations                  ...     1560.971 sec (=  26.016 min)  31.0 %
SCF Gradient evaluation         ...      334.186 sec (=   5.570 min)   6.6 %
Geometry relaxation             ...        1.026 sec (=   0.017 min)   0.0 %
Analytical frequency calculation...     2647.026 sec (=  44.117 min)  52.5 %
CHELPG charge generation        ...      478.792 sec (=   7.980 min)   9.5 %
                             ****ORCA TERMINATED NORMALLY****
TOTAL RUN TIME: 0 days 1 hours 24 minutes 29 seconds 828 msec
