
Lmod is automatically replacing "intel/2020.1.217" with "gcc/10.3.0".


Due to MODULEPATH changes, the following have been reloaded:
  1) blis/0.8.1     2) flexiblas/3.0.4

The following have been reloaded with a version change:
  1) gcccore/.9.3.0 => gcccore/.10.3.0        3) openmpi/4.0.3 => openmpi/4.1.1
  2) libfabric/1.10.1 => libfabric/1.12.1     4) ucx/1.8.0 => ucx/1.9.0

To execute ORCA, run: 
   ${EBROOTORCA}/orca orca.inp > orca.out

                                 *****************
                                 * O   R   C   A *
                                 *****************

                                            #,                                       
                                            ###                                      
                                            ####                                     
                                            #####                                    
                                            ######                                   
                                           ########,                                 
                                     ,,################,,,,,                         
                               ,,#################################,,                 
                          ,,##########################################,,             
                       ,#########################################, ''#####,          
                    ,#############################################,,   '####,        
                  ,##################################################,,,,####,       
                ,###########''''           ''''###############################       
              ,#####''   ,,,,##########,,,,          '''####'''          '####       
            ,##' ,,,,###########################,,,                        '##       
           ' ,,###''''                  '''############,,,                           
         ,,##''                                '''############,,,,        ,,,,,,###''
      ,#''                                            '''#######################'''  
     '                                                          ''''####''''         
             ,#######,   #######,   ,#######,      ##                                
            ,#'     '#,  ##    ##  ,#'     '#,    #''#        ######   ,####,        
            ##       ##  ##   ,#'  ##            #'  '#       #        #'  '#        
            ##       ##  #######   ##           ,######,      #####,   #    #        
            '#,     ,#'  ##    ##  '#,     ,#' ,#      #,         ##   #,  ,#        
             '#######'   ##     ##  '#######'  #'      '#     #####' # '####'        



                  #######################################################
                  #                        -***-                        #
                  #          Department of theory and spectroscopy      #
                  #    Directorship and core code : Frank Neese         #
                  #        Max Planck Institute fuer Kohlenforschung    #
                  #                Kaiser Wilhelm Platz 1               #
                  #                 D-45470 Muelheim/Ruhr               #
                  #                      Germany                        #
                  #                                                     #
                  #                  All rights reserved                #
                  #                        -***-                        #
                  #######################################################


                         Program Version 5.0.2 -  RELEASE  -


 With contributions from (in alphabetic order):
   Daniel Aravena         : Magnetic Suceptibility
   Michael Atanasov       : Ab Initio Ligand Field Theory (pilot matlab implementation)
   Alexander A. Auer      : GIAO ZORA, VPT2 properties, NMR spectrum
   Ute Becker             : Parallelization
   Giovanni Bistoni       : ED, misc. LED, open-shell LED, HFLD
   Martin Brehm           : Molecular dynamics
   Dmytro Bykov           : SCF Hessian
   Vijay G. Chilkuri      : MRCI spin determinant printing, contributions to CSF-ICE
   Dipayan Datta          : RHF DLPNO-CCSD density
   Achintya Kumar Dutta   : EOM-CC, STEOM-CC
   Dmitry Ganyushin       : Spin-Orbit,Spin-Spin,Magnetic field MRCI
   Miquel Garcia          : C-PCM and meta-GGA Hessian, CC/C-PCM, Gaussian charge scheme
   Yang Guo               : DLPNO-NEVPT2, F12-NEVPT2, CIM, IAO-localization
   Andreas Hansen         : Spin unrestricted coupled pair/coupled cluster methods
   Benjamin Helmich-Paris : MC-RPA, TRAH-SCF, COSX integrals
   Lee Huntington         : MR-EOM, pCC
   Robert Izsak           : Overlap fitted RIJCOSX, COSX-SCS-MP3, EOM
   Marcus Kettner         : VPT2
   Christian Kollmar      : KDIIS, OOCD, Brueckner-CCSD(T), CCSD density, CASPT2, CASPT2-K
   Simone Kossmann        : Meta GGA functionals, TD-DFT gradient, OOMP2, MP2 Hessian
   Martin Krupicka        : Initial AUTO-CI
   Lucas Lang             : DCDCAS
   Marvin Lechner         : AUTO-CI (C++ implementation), FIC-MRCC
   Dagmar Lenk            : GEPOL surface, SMD
   Dimitrios Liakos       : Extrapolation schemes; Compound Job, initial MDCI parallelization
   Dimitrios Manganas     : Further ROCIS development; embedding schemes
   Dimitrios Pantazis     : SARC Basis sets
   Anastasios Papadopoulos: AUTO-CI, single reference methods and gradients
   Taras Petrenko         : DFT Hessian,TD-DFT gradient, ASA, ECA, R-Raman, ABS, FL, XAS/XES, NRVS
   Peter Pinski           : DLPNO-MP2, DLPNO-MP2 Gradient
   Christoph Reimann      : Effective Core Potentials
   Marius Retegan         : Local ZFS, SOC
   Christoph Riplinger    : Optimizer, TS searches, QM/MM, DLPNO-CCSD(T), (RO)-DLPNO pert. Triples
   Tobias Risthaus        : Range-separated hybrids, TD-DFT gradient, RPA, STAB
   Michael Roemelt        : Original ROCIS implementation
   Masaaki Saitow         : Open-shell DLPNO-CCSD energy and density
   Barbara Sandhoefer     : DKH picture change effects
   Avijit Sen             : IP-ROCIS
   Kantharuban Sivalingam : CASSCF convergence, NEVPT2, FIC-MRCI
   Bernardo de Souza      : ESD, SOC TD-DFT
   Georgi Stoychev        : AutoAux, RI-MP2 NMR, DLPNO-MP2 response
   Willem Van den Heuvel  : Paramagnetic NMR
   Boris Wezisla          : Elementary symmetry handling
   Frank Wennmohs         : Technical directorship


 We gratefully acknowledge several colleagues who have allowed us to
 interface, adapt or use parts of their codes:
   Stefan Grimme, W. Hujo, H. Kruse, P. Pracht,  : VdW corrections, initial TS optimization,
                  C. Bannwarth, S. Ehlert          DFT functionals, gCP, sTDA/sTD-DF
   Ed Valeev, F. Pavosevic, A. Kumar             : LibInt (2-el integral package), F12 methods
   Garnet Chan, S. Sharma, J. Yang, R. Olivares  : DMRG
   Ulf Ekstrom                                   : XCFun DFT Library
   Mihaly Kallay                                 : mrcc  (arbitrary order and MRCC methods)
   Jiri Pittner, Ondrej Demel                    : Mk-CCSD
   Frank Weinhold                                : gennbo (NPA and NBO analysis)
   Christopher J. Cramer and Donald G. Truhlar   : smd solvation model
   Lars Goerigk                                  : TD-DFT with DH, B97 family of functionals
   V. Asgeirsson, H. Jonsson                     : NEB implementation
   FAccTs GmbH                                   : IRC, NEB, NEB-TS, DLPNO-Multilevel, CI-OPT
                                                   MM, QMMM, 2- and 3-layer-ONIOM, Crystal-QMMM,
                                                   LR-CPCM, SF, NACMEs, symmetry and pop. for TD-DFT,
                                                   nearIR, NL-DFT gradient (VV10), updates on ESD,
                                                   ML-optimized integration grids
   S Lehtola, MJT Oliveira, MAL Marques          : LibXC Library
   Liviu Ungur et al                             : ANISO software


 Your calculation uses the libint2 library for the computation of 2-el integrals
 For citations please refer to: http://libint.valeyev.net

 Your ORCA version has been built with support for libXC version: 5.1.0
 For citations please refer to: https://tddft.org/programs/libxc/

 This ORCA versions uses:
   CBLAS   interface :  Fast vector & matrix operations
   LAPACKE interface :  Fast linear algebra routines
   SCALAPACK package :  Parallel linear algebra routines
   Shared memory     :  Shared parallel matrices
   BLAS/LAPACK       :  OpenBLAS 0.3.15  USE64BITINT DYNAMIC_ARCH NO_AFFINITY Zen SINGLE_THREADED
        Core in use  :  Zen
   Copyright (c) 2011-2014, The OpenBLAS Project


Your calculation utilizes the atom-pairwise dispersion correction
with the Becke-Johnson damping scheme (D3BJ)
Cite in your paper:
S.Grimme, S.Ehrlich, L.Goerigk, J Comput Chem, (2011), 32, 1456–1465 
S.Grimme, J.Antony, S.Ehrlich and H.Krieg, J.Chem.Phys., 132, (2010), 154104 
   

================================================================================

----- Orbital basis set information -----
Your calculation utilizes the basis: def2-TZVPP
   F. Weigend and R. Ahlrichs, Phys. Chem. Chem. Phys. 7, 3297 (2005).

----- AuxJ basis set information -----
Your calculation utilizes the auxiliary basis: def2/J
   F. Weigend, Phys. Chem. Chem. Phys. 8, 1057 (2006).

================================================================================
                                        WARNINGS
                       Please study these warnings very carefully!
================================================================================


WARNING: Geometry Optimization
  ===> : Switching off AutoStart
         For restart on a previous wavefunction, please use MOREAD

INFO   : the flag for use of the SHARK integral package has been found!

================================================================================
                                       INPUT FILE
================================================================================
NAME = GGG-H_tt_007_OptFreq.inp
|  1> # GGG-H_tt_007 (old 035)
|  2> ! wB97X-D3BJ Opt Freq def2-TZVPP def2/J RIJCOSX VeryTightSCF
|  3> ! PAL8 defgrid3 VeryTightOpt
|  4> 
|  5> %maxcore 4096
|  6> 
|  7> %geom
|  8>   MaxIter 300
|  9>   # MaxStep 0.1
| 10>   Calc_Hess true
| 11>   Recalc_Hess 10
| 12> end
| 13> 
| 14> %chelpg
| 15>   grid 0.1
| 16>   rmax 3.0
| 17> end
| 18> 
| 19> * xyz 1 1 
| 20>  N   -1.910840   +0.130006   -2.701437
| 21>  H   -2.759717   +0.335120   -2.176327
| 22>  C   -1.987060   -0.765407   -3.837346
| 23>  C   -1.489678   -2.171288   -3.478863
| 24>  H   -3.019240   -0.821628   -4.214521
| 25>  H   -1.348773   -0.394845   -4.659319
| 26>  O   -0.886317   -2.467972   -2.452810
| 27>  C   -0.706563   +0.486553   -2.195453
| 28>  C   -0.679265   +1.047015   -0.767130
| 29>  O   +0.349107   +0.218469   -2.798863
| 30>  N   +0.000000   +0.000000   +0.000000
| 31>  H   -1.678752   +1.257304   -0.355357
| 32>  H   -0.058296   +1.954233   -0.719382
| 33>  H   -0.467722   -0.908872   -0.012056
| 34>  C   +1.384128   +0.000000   +0.000000
| 35>  C   +2.010786   -1.393122   -0.202455
| 36>  O   +2.068568   +1.004956   +0.000000
| 37>  H   +1.604034   -2.182974   +0.448311
| 38>  H   +3.096964   -1.311944   -0.069040
| 39>  O   -1.778341   -3.035872   -4.448205
| 40>  H   -1.437701   -3.923939   -4.202794
| 41>  N   +1.724610   -1.759485   -1.650797
| 42>  H   +2.510842   -2.255613   -2.093198
| 43>  H   +0.857970   -2.329635   -1.770766
| 44>  H   +1.479496   -0.879777   -2.209112
| 45> *
| 46> 
| 47>                          ****END OF INPUT****
================================================================================

                       *****************************
                       * Geometry Optimization Run *
                       *****************************

Geometry optimization settings:
Update method            Update   .... BFGS
Choice of coordinates    CoordSys .... Z-matrix Internals
Initial Hessian          InHess   .... Almoef's Model

Convergence Tolerances:
Energy Change            TolE     ....  2.0000e-07 Eh
Max. Gradient            TolMAXG  ....  3.0000e-05 Eh/bohr
RMS Gradient             TolRMSG  ....  8.0000e-06 Eh/bohr
Max. Displacement        TolMAXD  ....  2.0000e-04 bohr
RMS Displacement         TolRMSD  ....  1.0000e-04 bohr
Strict Convergence                ....  False
------------------------------------------------------------------------------
                        ORCA OPTIMIZATION COORDINATE SETUP
------------------------------------------------------------------------------

The optimization will be done in new redundant internal coordinates
Making redundant internal coordinates   ...  (new redundants) done
Evaluating the initial hessian          ...  (Is done on the fly) done
Evaluating the coordinates              ...  done
Calculating the B-matrix                .... done
Calculating the G-matrix                .... done
Diagonalizing the G-matrix              .... done
Small eigenvalue found = 1.004e-02
Small eigenvalue found = 1.135e-02
Small eigenvalue found = 2.333e-02
The first mode is                       ....   45
The number of degrees of freedom        ....   69

    -----------------------------------------------------------------
                    Redundant Internal Coordinates


    -----------------------------------------------------------------
         Definition                    Initial Value    d2E/dq (diagonal element)
    -----------------------------------------------------------------
      1. B(H   1,N   0)                  1.0190         0.000000   
      2. B(C   2,N   0)                  1.4484         0.000000   
      3. B(C   3,C   2)                  1.5338         0.000000   
      4. B(H   4,C   2)                  1.1004         0.000000   
      5. B(H   5,C   2)                  1.1047         0.000000   
      6. B(O   6,C   3)                  1.2267         0.000000   
      7. B(C   7,N   0)                  1.3540         0.000000   
      8. B(C   8,C   7)                  1.5346         0.000000   
      9. B(O   9,C   7)                  1.2452         0.000000   
     10. B(N  10,C   8)                  1.4650         0.000000   
     11. B(H  11,C   8)                  1.1013         0.000000   
     12. B(H  12,C   8)                  1.1004         0.000000   
     13. B(H  13,N  10)                  1.0222         0.000000   
     14. B(C  14,N  10)                  1.3841         0.000000   
     15. B(C  15,C  14)                  1.5409         0.000000   
     16. B(O  16,C  14)                  1.2159         0.000000   
     17. B(H  17,C  15)                  1.1013         0.000000   
     18. B(H  18,C  15)                  1.0973         0.000000   
     19. B(O  19,C   3)                  1.3306         0.000000   
     20. B(H  20,O  19)                  0.9823         0.000000   
     21. B(N  21,C  15)                  1.5211         0.000000   
     22. B(H  22,N  21)                  1.0296         0.000000   
     23. B(H  23,H  20)                  3.7050         0.000000   
     24. B(H  23,N  21)                  1.0443         0.000000   
     25. B(H  24,N  21)                  1.0704         0.000000   
     26. A(H   1,N   0,C   2)          118.9948         0.000000   
     27. A(C   2,N   0,C   7)          120.1756         0.000000   
     28. A(H   1,N   0,C   7)          119.6914         0.000000   
     29. A(C   3,C   2,H   5)          107.0983         0.000000   
     30. A(C   3,C   2,H   4)          109.7232         0.000000   
     31. A(N   0,C   2,H   4)          110.4730         0.000000   
     32. A(N   0,C   2,C   3)          111.4876         0.000000   
     33. A(N   0,C   2,H   5)          110.2281         0.000000   
     34. A(H   4,C   2,H   5)          107.7027         0.000000   
     35. A(O   6,C   3,O  19)          123.9792         0.000000   
     36. A(C   2,C   3,O  19)          110.7921         0.000000   
     37. A(C   2,C   3,O   6)          125.2176         0.000000   
     38. A(C   8,C   7,O   9)          120.9706         0.000000   
     39. A(N   0,C   7,O   9)          121.0820         0.000000   
     40. A(N   0,C   7,C   8)          117.3741         0.000000   
     41. A(C   7,C   8,H  11)          113.6793         0.000000   
     42. A(C   7,C   8,N  10)          103.5688         0.000000   
     43. A(H  11,C   8,H  12)          109.7857         0.000000   
     44. A(N  10,C   8,H  12)          107.7490         0.000000   
     45. A(C   7,C   8,H  12)          110.5804         0.000000   
     46. A(N  10,C   8,H  11)          111.1924         0.000000   
     47. A(H  13,N  10,C  14)          117.2291         0.000000   
     48. A(C   8,N  10,C  14)          117.6243         0.000000   
     49. A(C   8,N  10,H  13)          114.6527         0.000000   
     50. A(C  15,C  14,O  16)          121.2192         0.000000   
     51. A(N  10,C  14,O  16)          124.2574         0.000000   
     52. A(N  10,C  14,C  15)          113.9961         0.000000   
     53. A(H  17,C  15,H  18)          110.2917         0.000000   
     54. A(C  14,C  15,H  18)          108.6436         0.000000   
     55. A(C  14,C  15,H  17)          114.8710         0.000000   
     56. A(H  18,C  15,N  21)          108.6508         0.000000   
     57. A(H  17,C  15,N  21)          108.6882         0.000000   
     58. A(C  14,C  15,N  21)          105.4464         0.000000   
     59. A(C   3,O  19,H  20)          109.2812         0.000000   
     60. A(H  23,N  21,H  24)          101.4641         0.000000   
     61. A(H  22,N  21,H  24)          110.2908         0.000000   
     62. A(C  15,N  21,H  24)          109.9858         0.000000   
     63. A(H  22,N  21,H  23)          108.7408         0.000000   
     64. A(C  15,N  21,H  23)          113.3916         0.000000   
     65. A(C  15,N  21,H  22)          112.4282         0.000000   
     66. D(H   4,C   2,N   0,C   7)   -171.0428         0.000000   
     67. D(H   5,C   2,N   0,C   7)    -52.1293         0.000000   
     68. D(H   5,C   2,N   0,H   1)    140.0998         0.000000   
     69. D(H   4,C   2,N   0,H   1)     21.1863         0.000000   
     70. D(C   3,C   2,N   0,H   1)   -101.0972         0.000000   
     71. D(C   3,C   2,N   0,C   7)     66.6737         0.000000   
     72. D(O   6,C   3,C   2,H   4)   -134.7162         0.000000   
     73. D(O  19,C   3,C   2,H   5)    -70.1703         0.000000   
     74. D(O  19,C   3,C   2,H   4)     46.4610         0.000000   
     75. D(O   6,C   3,C   2,H   5)    108.6525         0.000000   
     76. D(O  19,C   3,C   2,N   0)    169.1752         0.000000   
     77. D(O   6,C   3,C   2,N   0)    -12.0020         0.000000   
     78. D(O   9,C   7,N   0,H   1)    178.1581         0.000000   
     79. D(C   8,C   7,N   0,C   2)   -160.9268         0.000000   
     80. D(C   8,C   7,N   0,H   1)      6.7589         0.000000   
     81. D(O   9,C   7,N   0,C   2)     10.4724         0.000000   
     82. D(H  12,C   8,C   7,O   9)     54.9673         0.000000   
     83. D(H  12,C   8,C   7,N   0)   -133.6234         0.000000   
     84. D(H  11,C   8,C   7,O   9)    178.9874         0.000000   
     85. D(N  10,C   8,C   7,O   9)    -60.2215         0.000000   
     86. D(N  10,C   8,C   7,N   0)    111.1878         0.000000   
     87. D(H  11,C   8,C   7,N   0)     -9.6033         0.000000   
     88. D(C  14,N  10,C   8,H  12)    -33.2544         0.000000   
     89. D(C  14,N  10,C   8,H  11)   -153.6060         0.000000   
     90. D(C  14,N  10,C   8,C   7)     83.9353         0.000000   
     91. D(H  13,N  10,C   8,H  12)   -177.1933         0.000000   
     92. D(H  13,N  10,C   8,H  11)     62.4552         0.000000   
     93. D(H  13,N  10,C   8,C   7)    -60.0035         0.000000   
     94. D(O  16,C  14,N  10,C   8)     36.2296         0.000000   
     95. D(C  15,C  14,N  10,H  13)      7.5086         0.000000   
     96. D(C  15,C  14,N  10,C   8)   -135.5018         0.000000   
     97. D(O  16,C  14,N  10,H  13)    179.2400         0.000000   
     98. D(N  21,C  15,C  14,O  16)   -101.6835         0.000000   
     99. D(N  21,C  15,C  14,N  10)     70.3270         0.000000   
    100. D(H  18,C  15,C  14,O  16)     14.6365         0.000000   
    101. D(H  18,C  15,C  14,N  10)   -173.3531         0.000000   
    102. D(H  17,C  15,C  14,O  16)    138.6799         0.000000   
    103. D(H  17,C  15,C  14,N  10)    -49.3096         0.000000   
    104. D(H  20,O  19,C   3,O   6)      0.2399         0.000000   
    105. D(H  20,O  19,C   3,C   2)    179.0802         0.000000   
    106. D(H  24,N  21,C  15,H  18)    -97.7441         0.000000   
    107. D(H  24,N  21,C  15,H  17)    142.2188         0.000000   
    108. D(H  24,N  21,C  15,C  14)     18.5709         0.000000   
    109. D(H  23,N  21,C  15,H  18)    149.4415         0.000000   
    110. D(H  23,N  21,C  15,H  17)     29.4043         0.000000   
    111. D(H  23,N  21,C  15,C  14)    -94.2435         0.000000   
    112. D(H  22,N  21,C  15,H  18)     25.5761         0.000000   
    113. D(H  22,N  21,C  15,H  17)    -94.4611         0.000000   
    114. D(H  22,N  21,C  15,C  14)    141.8911         0.000000   
    -----------------------------------------------------------------

Number of atoms                         .... 25
Number of degrees of freedom            .... 114

         *************************************************************
         *                GEOMETRY OPTIMIZATION CYCLE   1            *
         *************************************************************
---------------------------------
CARTESIAN COORDINATES (ANGSTROEM)
---------------------------------
  N     -1.910840    0.130006   -2.701437
  H     -2.759717    0.335120   -2.176327
  C     -1.987060   -0.765407   -3.837346
  C     -1.489678   -2.171288   -3.478863
  H     -3.019240   -0.821628   -4.214521
  H     -1.348773   -0.394845   -4.659319
  O     -0.886317   -2.467972   -2.452810
  C     -0.706563    0.486553   -2.195453
  C     -0.679265    1.047015   -0.767130
  O      0.349107    0.218469   -2.798863
  N      0.000000    0.000000    0.000000
  H     -1.678752    1.257304   -0.355357
  H     -0.058296    1.954233   -0.719382
  H     -0.467722   -0.908872   -0.012056
  C      1.384128    0.000000    0.000000
  C      2.010786   -1.393122   -0.202455
  O      2.068568    1.004956    0.000000
  H      1.604034   -2.182974    0.448311
  H      3.096964   -1.311944   -0.069040
  O     -1.778341   -3.035872   -4.448205
  H     -1.437701   -3.923939   -4.202794
  N      1.724610   -1.759485   -1.650797
  H      2.510842   -2.255613   -2.093198
  H      0.857970   -2.329635   -1.770766
  H      1.479496   -0.879777   -2.209112

----------------------------
CARTESIAN COORDINATES (A.U.)
----------------------------
  NO LB      ZA    FRAG     MASS         X           Y           Z
   0 N     7.0000    0    14.007   -3.610964    0.245676   -5.104976
   1 H     1.0000    0     1.008   -5.215109    0.633285   -4.112662
   2 C     6.0000    0    12.011   -3.754999   -1.446410   -7.251533
   3 C     6.0000    0    12.011   -2.815083   -4.103140   -6.574098
   4 H     1.0000    0     1.008   -5.705537   -1.552652   -7.964290
   5 H     1.0000    0     1.008   -2.548812   -0.746149   -8.804837
   6 O     8.0000    0    15.999   -1.674896   -4.663791   -4.635139
   7 C     6.0000    0    12.011   -1.335211    0.919452   -4.148805
   8 C     6.0000    0    12.011   -1.283625    1.978572   -1.449666
   9 O     8.0000    0    15.999    0.659717    0.412847   -5.289085
  10 N     7.0000    0    14.007    0.000000    0.000000    0.000000
  11 H     1.0000    0     1.008   -3.172382    2.375960   -0.671527
  12 H     1.0000    0     1.008   -0.110163    3.692965   -1.359435
  13 H     1.0000    0     1.008   -0.883866   -1.717519   -0.022783
  14 C     6.0000    0    12.011    2.615623    0.000000    0.000000
  15 C     6.0000    0    12.011    3.799835   -2.632619   -0.382585
  16 O     8.0000    0    15.999    3.909027    1.899092    0.000000
  17 H     1.0000    0     1.008    3.031185   -4.125223    0.847185
  18 H     1.0000    0     1.008    5.852414   -2.479215   -0.130467
  19 O     8.0000    0    15.999   -3.360577   -5.736967   -8.405889
  20 H     1.0000    0     1.008   -2.716861   -7.415170   -7.942130
  21 N     7.0000    0    14.007    3.259041   -3.324945   -3.119554
  22 H     1.0000    0     1.008    4.744804   -4.262491   -3.955571
  23 H     1.0000    0     1.008    1.621328   -4.402372   -3.346263
  24 H     1.0000    0     1.008    2.795842   -1.662538   -4.174617

--------------------------------
INTERNAL COORDINATES (ANGSTROEM)
--------------------------------
 N      0   0   0     0.000000000000     0.00000000     0.00000000
 H      1   0   0     1.019021308033     0.00000000     0.00000000
 C      1   2   0     1.448400215842   118.99478150     0.00000000
 C      3   1   2     1.533753663850   111.48755703   258.90279538
 H      3   1   2     1.100371452677   110.47303430    21.18629660
 H      3   1   2     1.104701816302   110.22807577   140.09976766
 O      4   3   1     1.226723543014   125.21763735   347.99802182
 C      1   2   3     1.354041603568   119.69141945   192.16880463
 C      8   1   2     1.534590963930   117.37406471     6.75893243
 O      8   1   2     1.245155334910   121.08204784   178.15814013
 N      9   8   1     1.464967503855   103.56881988   111.18782656
 H      9   8   1     1.101250530179   113.67928614   350.39670074
 H      9   8   1     1.100421223891   110.58036446   226.37660197
 H     11   9   8     1.022231641461   114.65266848   299.99645664
 C     11   9   8     1.384128000000   117.62433592    83.93529951
 C     15  11   9     1.540933867132   113.99608181   224.49820208
 O     15  11   9     1.215892542759   124.25739346    36.22959632
 H     16  15  11     1.101276422232   114.87095688   310.69035124
 H     16  15  11     1.097347746885   108.64360751   186.64693041
 O      4   3   1     1.330584733713   110.79205214   169.17520138
 H     20   4   3     0.982306044474   109.28119777   179.08018257
 N     16  15  11     1.521122315828   105.44635282    70.32701994
 H     22  16  15     1.029573890019   112.42821140   141.89110175
 H     22  16  15     1.044283712916   113.39162105   265.75650510
 H     22  16  15     1.070365674657   109.98583803    18.57092988

---------------------------
INTERNAL COORDINATES (A.U.)
---------------------------
 N      0   0   0     0.000000000000     0.00000000     0.00000000
 H      1   0   0     1.925671196812     0.00000000     0.00000000
 C      1   2   0     2.737079740253   118.99478150     0.00000000
 C      3   1   2     2.898374381575   111.48755703   258.90279538
 H      3   1   2     2.079400691144   110.47303430    21.18629660
 H      3   1   2     2.087583892457   110.22807577   140.09976766
 O      4   3   1     2.318171538331   125.21763735   347.99802182
 C      1   2   3     2.558767804680   119.69141945   192.16880463
 C      8   1   2     2.899956649419   117.37406471     6.75893243
 O      8   1   2     2.353002577172   121.08204784   178.15814013
 N      9   8   1     2.768387377379   103.56881988   111.18782656
 H      9   8   1     2.081061906873   113.67928614   350.39670074
 H      9   8   1     2.079494745108   110.58036446   226.37660197
 H     11   9   8     1.931737847790   114.65266848   299.99645664
 C     11   9   8     2.615622854292   117.62433592    83.93529951
 C     15  11   9     2.911942999363   113.99608181   224.49820208
 O     15  11   9     2.297703914091   124.25739346    36.22959632
 H     16  15  11     2.081110835763   114.87095688   310.69035124
 H     16  15  11     2.073686715288   108.64360751   186.64693041
 O      4   3   1     2.514440744693   110.79205214   169.17520138
 H     20   4   3     1.856289403751   109.28119777   179.08018257
 N     16  15  11     2.874504593110   105.44635282    70.32701994
 H     22  16  15     1.945612686772   112.42821140   141.89110175
 H     22  16  15     1.973410223525   113.39162105   265.75650510
 H     22  16  15     2.022697988253   109.98583803    18.57092988

---------------------
BASIS SET INFORMATION
---------------------
There are 4 groups of distinct atoms

 Group   1 Type N   : 11s6p2d1f contracted to 5s3p2d1f pattern {62111/411/11/1}
 Group   2 Type H   : 5s2p1d contracted to 3s2p1d pattern {311/11/1}
 Group   3 Type C   : 11s6p2d1f contracted to 5s3p2d1f pattern {62111/411/11/1}
 Group   4 Type O   : 11s6p2d1f contracted to 5s3p2d1f pattern {62111/411/11/1}

Atom   0N    basis set group =>   1
Atom   1H    basis set group =>   2
Atom   2C    basis set group =>   3
Atom   3C    basis set group =>   3
Atom   4H    basis set group =>   2
Atom   5H    basis set group =>   2
Atom   6O    basis set group =>   4
Atom   7C    basis set group =>   3
Atom   8C    basis set group =>   3
Atom   9O    basis set group =>   4
Atom  10N    basis set group =>   1
Atom  11H    basis set group =>   2
Atom  12H    basis set group =>   2
Atom  13H    basis set group =>   2
Atom  14C    basis set group =>   3
Atom  15C    basis set group =>   3
Atom  16O    basis set group =>   4
Atom  17H    basis set group =>   2
Atom  18H    basis set group =>   2
Atom  19O    basis set group =>   4
Atom  20H    basis set group =>   2
Atom  21N    basis set group =>   1
Atom  22H    basis set group =>   2
Atom  23H    basis set group =>   2
Atom  24H    basis set group =>   2
---------------------------------
AUXILIARY/J BASIS SET INFORMATION
---------------------------------
There are 4 groups of distinct atoms

 Group   1 Type N   : 12s5p4d2f1g contracted to 6s4p3d1f1g pattern {711111/2111/211/2/1}
 Group   2 Type H   : 5s2p1d contracted to 3s1p1d pattern {311/2/1}
 Group   3 Type C   : 12s5p4d2f1g contracted to 6s4p3d1f1g pattern {711111/2111/211/2/1}
 Group   4 Type O   : 12s5p4d2f1g contracted to 6s4p3d1f1g pattern {711111/2111/211/2/1}

Atom   0N    basis set group =>   1
Atom   1H    basis set group =>   2
Atom   2C    basis set group =>   3
Atom   3C    basis set group =>   3
Atom   4H    basis set group =>   2
Atom   5H    basis set group =>   2
Atom   6O    basis set group =>   4
Atom   7C    basis set group =>   3
Atom   8C    basis set group =>   3
Atom   9O    basis set group =>   4
Atom  10N    basis set group =>   1
Atom  11H    basis set group =>   2
Atom  12H    basis set group =>   2
Atom  13H    basis set group =>   2
Atom  14C    basis set group =>   3
Atom  15C    basis set group =>   3
Atom  16O    basis set group =>   4
Atom  17H    basis set group =>   2
Atom  18H    basis set group =>   2
Atom  19O    basis set group =>   4
Atom  20H    basis set group =>   2
Atom  21N    basis set group =>   1
Atom  22H    basis set group =>   2
Atom  23H    basis set group =>   2
Atom  24H    basis set group =>   2


           ************************************************************
           *        Program running with 8 parallel MPI-processes     *
           *              working on a common directory               *
           ************************************************************
------------------------------------------------------------------------------
                           ORCA GTO INTEGRAL CALCULATION
                           -- RI-GTO INTEGRALS CHOSEN --
------------------------------------------------------------------------------
------------------------------------------------------------------------------
                   ___                                                        
                  /   \      - P O W E R E D   B Y -                         
                 /     \                                                     
                 |  |  |   _    _      __       _____    __    __             
                 |  |  |  | |  | |    /  \     |  _  \  |  |  /  |          
                  \  \/   | |  | |   /    \    | | | |  |  | /  /          
                 / \  \   | |__| |  /  /\  \   | |_| |  |  |/  /          
                |  |  |   |  __  | /  /__\  \  |    /   |      \           
                |  |  |   | |  | | |   __   |  |    \   |  |\   \          
                \     /   | |  | | |  |  |  |  | |\  \  |  | \   \       
                 \___/    |_|  |_| |__|  |__|  |_| \__\ |__|  \__/        
                                                                              
                      - O R C A' S   B I G   F R I E N D -                    
                                      &                                       
                       - I N T E G R A L  F E E D E R -                       
                                                                              
 v1 FN, 2020, v2 2021                                                         
------------------------------------------------------------------------------


Reading SHARK input file GGG-H_tt_007_OptFreq.SHARKINP.tmp ... ok
----------------------
SHARK INTEGRAL PACKAGE
----------------------

Number of atoms                             ...     25
Number of basis functions                   ...    571
Number of shells                            ...    215
Maximum angular momentum                    ...      3
Integral batch strategy                     ... SHARK/LIBINT Hybrid
RI-J (if used) integral strategy            ... SPLIT-RIJ (Revised 2003 algorithm where possible)
Printlevel                                  ...      1
Contraction scheme used                     ... SEGMENTED contraction
Coulomb Range Separation                    ... NOT USED
Exchange Range Separation                   ... Long Range
   Mu parameter                             ...  0.300000
   Scaling (regular/separated)              ...  0.167000  0.833000
Finite Nucleus Model                        ... NOT USED
Auxiliary Coulomb fitting basis             ... AVAILABLE
   # of basis functions in Aux-J            ...    769
   # of shells in Aux-J                     ...    255
   Maximum angular momentum in Aux-J        ...      4
Auxiliary J/K fitting basis                 ... NOT available
Auxiliary Correlation fitting basis         ... NOT available
Auxiliary 'external' fitting basis          ... NOT available
Integral threshold                          ...     1.000000e-12
Primitive cut-off                           ...     1.000000e-14
Primitive pair pre-selection threshold      ...     1.000000e-14

Calculating pre-screening integrals         ... done (  0.0 sec) Dimension = 215
Organizing shell pair data                  ... done (  0.2 sec)
Shell pair information
Total number of shell pairs                 ...     23220
Shell pairs after pre-screening             ...     19907
Total number of primitive shell pairs       ...     63868
Primitive shell pairs kept                  ...     40188
          la=0 lb=0:   4337 shell pairs
          la=1 lb=0:   5583 shell pairs
          la=1 lb=1:   1835 shell pairs
          la=2 lb=0:   3148 shell pairs
          la=2 lb=1:   2079 shell pairs
          la=2 lb=2:    603 shell pairs
          la=3 lb=0:   1095 shell pairs
          la=3 lb=1:    732 shell pairs
          la=3 lb=2:    415 shell pairs
          la=3 lb=3:     80 shell pairs

Calculating one electron integrals          ... done (  0.1 sec)
Calculating RI/J V-Matrix + Cholesky decomp.... done (  0.2 sec)
Calculating Nuclear repulsion               ... done (  0.0 sec) ENN=    887.260682663600 Eh

SHARK setup successfully completed in   1.7 seconds

Maximum memory used throughout the entire GTOINT-calculation: 31.7 MB


           ************************************************************
           *        Program running with 8 parallel MPI-processes     *
           *              working on a common directory               *
           ************************************************************
-------------------------------------------------------------------------------
                                 ORCA SCF
-------------------------------------------------------------------------------

------------
SCF SETTINGS
------------
Hamiltonian:
 Density Functional     Method          .... DFT(GTOs)
 Exchange Functional    Exchange        .... WB97X-V
 Correlation Functional Correlation     .... WB97X-V
 Gradients option       PostSCFGGA      .... off
 Hybrid DFT is turned on
   Fraction HF Exchange ScalHFX         ....  0.167000
   Scaling of DF-GGA-X  ScalDFX         ....  0.000000
   Scaling of DF-GGA-C  ScalDFC         ....  1.000000
   Scaling of DF-LDA-C  ScalLDAC        ....  1.000000
   Perturbative correction              ....  0.000000
   Density functional embedding theory  .... OFF
 Long-range corrected/Screened/Range-Separated Hybrid DFT is turned on
   Amount of maximum screened exact exchange              ....  0.833000
   Range separation parameter mu (erf(mu*r12)/r12)        ....  0.300000
 RI-approximation to the Coulomb term is turned on
   Number of AuxJ basis functions       .... 769
   RIJ-COSX (HFX calculated with COS-X)).... on


General Settings:
 Integral files         IntName         .... GGG-H_tt_007_OptFreq
 Hartree-Fock type      HFTyp           .... RHF
 Total Charge           Charge          ....    1
 Multiplicity           Mult            ....    1
 Number of Electrons    NEL             ....  100
 Basis Dimension        Dim             ....  571
 Nuclear Repulsion      ENuc            ....    887.2606826636 Eh

Convergence Acceleration:
 DIIS                   CNVDIIS         .... on
   Start iteration      DIISMaxIt       ....    12
   Startup error        DIISStart       ....  0.200000
   # of expansion vecs  DIISMaxEq       ....     5
   Bias factor          DIISBfac        ....   1.050
   Max. coefficient     DIISMaxC        ....  10.000
 Trust-Rad. Augm. Hess. CNVTRAH         .... auto
   Auto Start mean grad. ratio tolernc. ....  1.125000
   Auto Start start iteration           ....    20
   Auto Start num. interpolation iter.  ....    10
   Max. Number of Micro iterations      ....    16
   Max. Number of Macro iterations      .... Maxiter - #DIIS iter
   Number of Davidson start vectors     ....     2
   Converg. threshold I  (grad. norm)   ....   2.000e-06
   Converg. threshold II (energy diff.) ....   1.000e-09
   Grad. Scal. Fac. for Micro threshold ....   0.100
   Minimum threshold for Micro iter.    ....   0.010
   NR start threshold (gradient norm)   ....   0.001
   Initial trust radius                 ....   0.400
   Minimum AH scaling param. (alpha)    ....   1.000
   Maximum AH scaling param. (alpha)    .... 1000.000
   Orbital update algorithm             .... Taylor
   White noise on init. David. guess    .... on
   Maximum white noise                  ....   0.010
   Quad. conv. algorithm                .... NR
 SOSCF                  CNVSOSCF        .... on
   Start iteration      SOSCFMaxIt      ....   150
   Startup grad/error   SOSCFStart      ....  0.003300
 Level Shifting         CNVShift        .... on
   Level shift para.    LevelShift      ....    0.2500
   Turn off err/grad.   ShiftErr        ....    0.0010
 Zerner damping         CNVZerner       .... off
 Static damping         CNVDamp         .... on
   Fraction old density DampFac         ....    0.7000
   Max. Damping (<1)    DampMax         ....    0.9800
   Min. Damping (>=0)   DampMin         ....    0.0000
   Turn off err/grad.   DampErr         ....    0.1000
 Fernandez-Rico         CNVRico         .... off

SCF Procedure:
 Maximum # iterations   MaxIter         ....   125
 SCF integral mode      SCFMode         .... Direct
   Integral package                     .... SHARK and LIBINT hybrid scheme
 Reset frequency        DirectResetFreq ....    20
 Integral Threshold     Thresh          ....  1.000e-12 Eh
 Primitive CutOff       TCut            ....  1.000e-14 Eh

Convergence Tolerance:
 Convergence Check Mode ConvCheckMode   .... Total+1el-Energy
 Convergence forced     ConvForced      .... 0
 Energy Change          TolE            ....  1.000e-09 Eh
 1-El. energy change                    ....  1.000e-06 Eh
 Orbital Gradient       TolG            ....  2.000e-06
 Orbital Rotation angle TolX            ....  2.000e-06
 DIIS Error             TolErr          ....  1.000e-08


Diagonalization of the overlap matrix:
Smallest eigenvalue                        ... 1.516e-04
Time for diagonalization                   ...    0.047 sec
Threshold for overlap eigenvalues          ... 1.000e-08
Number of eigenvalues below threshold      ... 0
Time for construction of square roots      ...    0.161 sec
Total time needed                          ...    0.209 sec

Time for model grid setup =    0.274 sec

------------------------------
INITIAL GUESS: MODEL POTENTIAL
------------------------------
Loading Hartree-Fock densities                     ... done
Calculating cut-offs                               ... done
Initializing the effective Hamiltonian             ... done
Setting up the integral package (SHARK)            ... done
Starting the Coulomb interaction                   ... done (   0.3 sec)
Reading the grid                                   ... done
Mapping shells                                     ... done
Starting the XC term evaluation                    ... done (   0.1 sec)
  promolecular density results
     # of electrons  =    100.995589174
     EX              =    -58.966011737
     EC              =     -4.270624761
     EX+EC           =    -63.236636498
Transforming the Hamiltonian                       ... done (   0.0 sec)
Diagonalizing the Hamiltonian                      ... done (   0.0 sec)
Back transforming the eigenvectors                 ... done (   0.0 sec)
Now organizing SCF variables                       ... done
                      ------------------
                      INITIAL GUESS DONE (   0.9 sec)
                      ------------------
-------------------
DFT GRID GENERATION
-------------------

General Integration Accuracy     IntAcc      ... 4.959
Radial Grid Type                 RadialGrid  ... OptM3 with GC (2021)
Angular Grid (max. ang.)         AngularGrid ... 6 (Lebedev-590)
Angular grid pruning method      GridPruning ... 4 (adaptive)
Weight generation scheme         WeightScheme... Becke
Basis function cutoff            BFCut       ... 1.0000e-12
Integration weight cutoff        WCut        ... 1.0000e-14
Angular grids for H and He will be reduced by one unit
Partially contracted basis set               ... off
Rotationally invariant grid construction     ... off

Total number of grid points                  ...   288327
Total number of batches                      ...     4516
Average number of points per batch           ...       63
Average number of grid points per atom       ...    11533
Time for grid setup =    3.229 sec

--------------------
COSX GRID GENERATION
--------------------

GRIDX 1
-------
General Integration Accuracy     IntAcc      ... 4.020
Radial Grid Type                 RadialGrid  ... OptM3 with GC (2021)
Angular Grid (max. ang.)         AngularGrid ... 2 (Lebedev-110)
Angular grid pruning method      GridPruning ... 4 (adaptive)
Weight generation scheme         WeightScheme... Becke
Basis function cutoff            BFCut       ... 1.0000e-12
Integration weight cutoff        WCut        ... 1.0000e-14
Angular grids for H and He will be reduced by one unit
Partially contracted basis set               ... on
Rotationally invariant grid construction     ... off

Total number of grid points                  ...    32130
Total number of batches                      ...      517
Average number of points per batch           ...       62
Average number of grid points per atom       ...     1285
UseSFitting                                  ... on

GRIDX 2
-------
General Integration Accuracy     IntAcc      ... 4.338
Radial Grid Type                 RadialGrid  ... OptM3 with GC (2021)
Angular Grid (max. ang.)         AngularGrid ... 3 (Lebedev-194)
Angular grid pruning method      GridPruning ... 4 (adaptive)
Weight generation scheme         WeightScheme... Becke
Basis function cutoff            BFCut       ... 1.0000e-12
Integration weight cutoff        WCut        ... 1.0000e-14
Angular grids for H and He will be reduced by one unit
Partially contracted basis set               ... on
Rotationally invariant grid construction     ... off

Total number of grid points                  ...    70286
Total number of batches                      ...     1110
Average number of points per batch           ...       63
Average number of grid points per atom       ...     2811
UseSFitting                                  ... on

GRIDX 3
-------
General Integration Accuracy     IntAcc      ... 4.871
Radial Grid Type                 RadialGrid  ... OptM3 with GC (2021)
Angular Grid (max. ang.)         AngularGrid ... 4 (Lebedev-302)
Angular grid pruning method      GridPruning ... 4 (adaptive)
Weight generation scheme         WeightScheme... Becke
Basis function cutoff            BFCut       ... 1.0000e-12
Integration weight cutoff        WCut        ... 1.0000e-14
Angular grids for H and He will be reduced by one unit
Partially contracted basis set               ... on
Rotationally invariant grid construction     ... off

Total number of grid points                  ...   133003
Total number of batches                      ...     2089
Average number of points per batch           ...       63
Average number of grid points per atom       ...     5320
UseSFitting                                  ... on

Time for X-Grid setup             =    7.028 sec

--------------
SCF ITERATIONS
--------------
ITER       Energy         Delta-E        Max-DP      RMS-DP      [F,P]     Damp
               ***  Starting incremental Fock matrix formation  ***
  0   -701.1555666044   0.000000000000 0.05887817  0.00050698  0.3426874 0.7000
  1   -701.2034398544  -0.047873250023 0.05092225  0.00046119  0.2343420 0.7000
                               ***Turning on DIIS***
  2   -701.2315834433  -0.028143588835 0.03842356  0.00035719  0.1629788 0.7000
  3   -701.2500783799  -0.018494936620 0.02890842  0.00028139  0.1123316 0.7000
  4   -701.2630423605  -0.012963980587 0.07205491  0.00073619  0.0774062 0.0000
                      *** Initiating the SOSCF procedure ***
                           *** Shutting down DIIS ***
                      *** Re-Reading the Fockian *** 
                      *** Removing any level shift *** 
ITER      Energy       Delta-E        Grad      Rot      Max-DP    RMS-DP
  5   -701.29429575  -0.0312533881  0.001477  0.001477  0.005683  0.000074
               *** Restarting incremental Fock matrix formation ***
  6   -701.29444215  -0.0001464060  0.000920  0.002091  0.003715  0.000045
  7   -701.29448570  -0.0000435455  0.000386  0.001913  0.002481  0.000034
  8   -701.29449443  -0.0000087308  0.000207  0.000375  0.000672  0.000010
  9   -701.29449743  -0.0000030026  0.000071  0.000080  0.000407  0.000005
 10   -701.29449764  -0.0000002030  0.000034  0.000056  0.000143  0.000002
 11   -701.29449781  -0.0000001699  0.000008  0.000023  0.000023  0.000000
 12   -701.29449781  -0.0000000051  0.000005  0.000012  0.000022  0.000000
 13   -701.29449781  -0.0000000030  0.000003  0.000009  0.000008  0.000000
 14   -701.29449782  -0.0000000006  0.000003  0.000004  0.000003  0.000000
 15   -701.29449781   0.0000000004  0.000001  0.000002  0.000001  0.000000
                  ***Gradient check signals convergence***
              ***Rediagonalizing the Fockian in SOSCF/NRSCF***

               *****************************************************
               *                     SUCCESS                       *
               *           SCF CONVERGED AFTER  16 CYCLES          *
               *****************************************************

Old exchange energy                            =    -27.831404491 Eh
New exchange energy                            =    -27.831401118 Eh
Exchange energy change after final integration =      0.000003372 Eh
Total energy after final integration           =   -701.294494442 Eh
Final COS-X integration done in                =    32.199 sec

----------------
TOTAL SCF ENERGY
----------------

Total Energy       :         -701.29449444 Eh          -19083.19336 eV

Components:
Nuclear Repulsion  :          887.26068266 Eh           24143.59061 eV
Electronic Energy  :        -1588.55517711 Eh          -43226.78398 eV
One Electron Energy:        -2702.43246732 Eh          -73536.92598 eV
Two Electron Energy:         1113.87729021 Eh           30310.14200 eV
Max COSX asymmetry :            0.00000109 Eh               0.00003 eV

Virial components:
Potential Energy   :        -1399.26142964 Eh          -38075.83924 eV
Kinetic Energy     :          697.96693520 Eh           18992.64587 eV
Virial Ratio       :            2.00476750


DFT components:
N(Alpha)           :       50.000017371628 electrons
N(Beta)            :       50.000017371628 electrons
N(Total)           :      100.000034743255 electrons
E(X)               :      -60.045493005287 Eh       
E(C)               :       -4.267145638205 Eh       
E(XC)              :      -64.312638643492 Eh       
DFET-embed. en.    :        0.000000000000 Eh       

---------------
SCF CONVERGENCE
---------------

  Last Energy change         ...    7.0838e-10  Tolerance :   1.0000e-09
  Last MAX-Density change    ...    1.5543e-15  Tolerance :   1.0000e-08
  Last RMS-Density change    ...    1.2798e-17  Tolerance :   1.0000e-09
  Last Orbital Gradient      ...    1.9237e-07  Tolerance :   2.0000e-06
  Last Orbital Rotation      ...    1.0018e-06  Tolerance :   2.0000e-06

             **** THE GBW FILE WAS UPDATED (GGG-H_tt_007_OptFreq.gbw) ****
             **** DENSITY GGG-H_tt_007_OptFreq.scfp WAS UPDATED ****
             **** ENERGY FILE WAS UPDATED (GGG-H_tt_007_OptFreq.en.tmp) ****
             **** THE GBW FILE WAS UPDATED (GGG-H_tt_007_OptFreq.gbw) ****
             **** DENSITY GGG-H_tt_007_OptFreq.scfp WAS UPDATED ****
----------------
ORBITAL ENERGIES
----------------

  NO   OCC          E(Eh)            E(eV) 
   0   2.0000     -19.424236      -528.5603 
   1   2.0000     -19.373830      -527.1887 
   2   2.0000     -19.346208      -526.4371 
   3   2.0000     -19.336503      -526.1730 
   4   2.0000     -14.678497      -399.4222 
   5   2.0000     -14.607986      -397.5035 
   6   2.0000     -14.590661      -397.0321 
   7   2.0000     -10.580118      -287.8997 
   8   2.0000     -10.544550      -286.9318 
   9   2.0000     -10.535361      -286.6817 
  10   2.0000     -10.500093      -285.7221 
  11   2.0000     -10.482913      -285.2546 
  12   2.0000     -10.469456      -284.8884 
  13   2.0000      -1.405375       -38.2422 
  14   2.0000      -1.341070       -36.4924 
  15   2.0000      -1.324288       -36.0357 
  16   2.0000      -1.311602       -35.6905 
  17   2.0000      -1.275154       -34.6987 
  18   2.0000      -1.223025       -33.2802 
  19   2.0000      -1.210138       -32.9295 
  20   2.0000      -1.055768       -28.7289 
  21   2.0000      -1.032612       -28.0988 
  22   2.0000      -0.986745       -26.8507 
  23   2.0000      -0.906801       -24.6753 
  24   2.0000      -0.875630       -23.8271 
  25   2.0000      -0.866633       -23.5823 
  26   2.0000      -0.853411       -23.2225 
  27   2.0000      -0.841224       -22.8909 
  28   2.0000      -0.803689       -21.8695 
  29   2.0000      -0.790290       -21.5049 
  30   2.0000      -0.781893       -21.2764 
  31   2.0000      -0.771168       -20.9845 
  32   2.0000      -0.756777       -20.5929 
  33   2.0000      -0.746470       -20.3125 
  34   2.0000      -0.737477       -20.0678 
  35   2.0000      -0.723336       -19.6830 
  36   2.0000      -0.698825       -19.0160 
  37   2.0000      -0.685240       -18.6463 
  38   2.0000      -0.679258       -18.4836 
  39   2.0000      -0.673258       -18.3203 
  40   2.0000      -0.658894       -17.9294 
  41   2.0000      -0.650822       -17.7098 
  42   2.0000      -0.637400       -17.3445 
  43   2.0000      -0.628661       -17.1067 
  44   2.0000      -0.596705       -16.2372 
  45   2.0000      -0.569545       -15.4981 
  46   2.0000      -0.550878       -14.9901 
  47   2.0000      -0.531704       -14.4684 
  48   2.0000      -0.520408       -14.1610 
  49   2.0000      -0.504472       -13.7274 
  50   0.0000      -0.091474        -2.4891 
  51   0.0000      -0.071065        -1.9338 
  52   0.0000      -0.060599        -1.6490 
  53   0.0000      -0.038573        -1.0496 
  54   0.0000      -0.029234        -0.7955 
  55   0.0000      -0.020549        -0.5592 
  56   0.0000      -0.013330        -0.3627 
  57   0.0000       0.017509         0.4764 
  58   0.0000       0.021361         0.5813 
  59   0.0000       0.026503         0.7212 
  60   0.0000       0.035742         0.9726 
  61   0.0000       0.056843         1.5468 
  62   0.0000       0.057882         1.5751 
  63   0.0000       0.062264         1.6943 
  64   0.0000       0.075734         2.0608 
  65   0.0000       0.079776         2.1708 
  66   0.0000       0.091411         2.4874 
  67   0.0000       0.095879         2.6090 
  68   0.0000       0.101963         2.7745 
  69   0.0000       0.113026         3.0756 
  70   0.0000       0.119441         3.2502 
  71   0.0000       0.135420         3.6850 
  72   0.0000       0.142293         3.8720 
  73   0.0000       0.146139         3.9767 
  74   0.0000       0.154395         4.2013 
  75   0.0000       0.169486         4.6119 
  76   0.0000       0.176576         4.8049 
  77   0.0000       0.177105         4.8193 
  78   0.0000       0.195137         5.3099 
  79   0.0000       0.202929         5.5220 
  80   0.0000       0.216665         5.8958 
  81   0.0000       0.228087         6.2066 
  82   0.0000       0.240900         6.5552 
  83   0.0000       0.248115         6.7516 
  84   0.0000       0.264747         7.2041 
  85   0.0000       0.271769         7.3952 
  86   0.0000       0.274285         7.4637 
  87   0.0000       0.277809         7.5596 
  88   0.0000       0.285635         7.7725 
  89   0.0000       0.299938         8.1617 
  90   0.0000       0.303601         8.2614 
  91   0.0000       0.308983         8.4079 
  92   0.0000       0.312919         8.5150 
  93   0.0000       0.314534         8.5589 
  94   0.0000       0.333465         9.0740 
  95   0.0000       0.335427         9.1274 
  96   0.0000       0.340490         9.2652 
  97   0.0000       0.349148         9.5008 
  98   0.0000       0.351748         9.5716 
  99   0.0000       0.355313         9.6686 
 100   0.0000       0.361717         9.8428 
 101   0.0000       0.368433        10.0256 
 102   0.0000       0.371644        10.1130 
 103   0.0000       0.380773        10.3614 
 104   0.0000       0.392502        10.6805 
 105   0.0000       0.394365        10.7312 
 106   0.0000       0.402970        10.9654 
 107   0.0000       0.409003        11.1295 
 108   0.0000       0.412358        11.2208 
 109   0.0000       0.426338        11.6012 
 110   0.0000       0.430419        11.7123 
 111   0.0000       0.450570        12.2606 
 112   0.0000       0.455625        12.3982 
 113   0.0000       0.462026        12.5724 
 114   0.0000       0.470778        12.8105 
 115   0.0000       0.484621        13.1872 
 116   0.0000       0.489844        13.3293 
 117   0.0000       0.495386        13.4801 
 118   0.0000       0.499908        13.6032 
 119   0.0000       0.505341        13.7510 
 120   0.0000       0.517220        14.0743 
 121   0.0000       0.524517        14.2728 
 122   0.0000       0.531958        14.4753 
 123   0.0000       0.538599        14.6560 
 124   0.0000       0.560655        15.2562 
 125   0.0000       0.584387        15.9020 
 126   0.0000       0.588080        16.0025 
 127   0.0000       0.597692        16.2640 
 128   0.0000       0.600420        16.3383 
 129   0.0000       0.607449        16.5295 
 130   0.0000       0.641524        17.4567 
 131   0.0000       0.662846        18.0370 
 132   0.0000       0.666967        18.1491 
 133   0.0000       0.679989        18.5034 
 134   0.0000       0.686882        18.6910 
 135   0.0000       0.696018        18.9396 
 136   0.0000       0.709229        19.2991 
 137   0.0000       0.722057        19.6482 
 138   0.0000       0.728234        19.8163 
 139   0.0000       0.732986        19.9456 
 140   0.0000       0.751219        20.4417 
 141   0.0000       0.760579        20.6964 
 142   0.0000       0.770814        20.9749 
 143   0.0000       0.790722        21.5166 
 144   0.0000       0.793734        21.5986 
 145   0.0000       0.797170        21.6921 
 146   0.0000       0.815712        22.1967 
 147   0.0000       0.823185        22.4000 
 148   0.0000       0.827061        22.5055 
 149   0.0000       0.838443        22.8152 
 150   0.0000       0.849186        23.1075 
 151   0.0000       0.871994        23.7282 
 152   0.0000       0.875634        23.8272 
 153   0.0000       0.887817        24.1587 
 154   0.0000       0.898929        24.4611 
 155   0.0000       0.911865        24.8131 
 156   0.0000       0.922351        25.0984 
 157   0.0000       0.930732        25.3265 
 158   0.0000       0.935590        25.4587 
 159   0.0000       0.945468        25.7275 
 160   0.0000       0.961578        26.1659 
 161   0.0000       0.966386        26.2967 
 162   0.0000       0.967781        26.3346 
 163   0.0000       0.985840        26.8261 
 164   0.0000       0.989482        26.9252 
 165   0.0000       0.997648        27.1474 
 166   0.0000       1.006816        27.3968 
 167   0.0000       1.023130        27.8408 
 168   0.0000       1.042424        28.3658 
 169   0.0000       1.046034        28.4640 
 170   0.0000       1.070213        29.1220 
 171   0.0000       1.081045        29.4167 
 172   0.0000       1.088300        29.6142 
 173   0.0000       1.097022        29.8515 
 174   0.0000       1.102471        29.9998 
 175   0.0000       1.108545        30.1651 
 176   0.0000       1.120561        30.4920 
 177   0.0000       1.130060        30.7505 
 178   0.0000       1.148645        31.2562 
 179   0.0000       1.151472        31.3332 
 180   0.0000       1.163903        31.6714 
 181   0.0000       1.165460        31.7138 
 182   0.0000       1.171426        31.8761 
 183   0.0000       1.189155        32.3585 
 184   0.0000       1.203295        32.7433 
 185   0.0000       1.206525        32.8312 
 186   0.0000       1.231123        33.5006 
 187   0.0000       1.241153        33.7735 
 188   0.0000       1.250717        34.0337 
 189   0.0000       1.258599        34.2482 
 190   0.0000       1.273661        34.6581 
 191   0.0000       1.280301        34.8388 
 192   0.0000       1.289862        35.0989 
 193   0.0000       1.303765        35.4772 
 194   0.0000       1.314268        35.7630 
 195   0.0000       1.337003        36.3817 
 196   0.0000       1.349646        36.7257 
 197   0.0000       1.361546        37.0496 
 198   0.0000       1.379655        37.5423 
 199   0.0000       1.384723        37.6802 
 200   0.0000       1.389536        37.8112 
 201   0.0000       1.400129        38.0994 
 202   0.0000       1.413678        38.4681 
 203   0.0000       1.418464        38.5984 
 204   0.0000       1.425755        38.7968 
 205   0.0000       1.435653        39.0661 
 206   0.0000       1.458684        39.6928 
 207   0.0000       1.460696        39.7476 
 208   0.0000       1.474875        40.1334 
 209   0.0000       1.477596        40.2074 
 210   0.0000       1.488451        40.5028 
 211   0.0000       1.498541        40.7774 
 212   0.0000       1.518375        41.3171 
 213   0.0000       1.528495        41.5925 
 214   0.0000       1.533700        41.7341 
 215   0.0000       1.546819        42.0911 
 216   0.0000       1.566683        42.6316 
 217   0.0000       1.575940        42.8835 
 218   0.0000       1.583662        43.0936 
 219   0.0000       1.588973        43.2381 
 220   0.0000       1.620617        44.0992 
 221   0.0000       1.636458        44.5303 
 222   0.0000       1.660671        45.1891 
 223   0.0000       1.664339        45.2890 
 224   0.0000       1.668698        45.4076 
 225   0.0000       1.693075        46.0709 
 226   0.0000       1.705561        46.4107 
 227   0.0000       1.715097        46.6702 
 228   0.0000       1.742550        47.4172 
 229   0.0000       1.755428        47.7676 
 230   0.0000       1.762305        47.9548 
 231   0.0000       1.786025        48.6002 
 232   0.0000       1.794106        48.8201 
 233   0.0000       1.812030        49.3079 
 234   0.0000       1.828661        49.7604 
 235   0.0000       1.836706        49.9793 
 236   0.0000       1.849828        50.3364 
 237   0.0000       1.880747        51.1777 
 238   0.0000       1.905346        51.8471 
 239   0.0000       1.921127        52.2765 
 240   0.0000       1.951172        53.0941 
 241   0.0000       1.957525        53.2670 
 242   0.0000       1.961860        53.3849 
 243   0.0000       1.980294        53.8865 
 244   0.0000       1.993203        54.2378 
 245   0.0000       2.004515        54.5456 
 246   0.0000       2.010546        54.7098 
 247   0.0000       2.036426        55.4140 
 248   0.0000       2.085934        56.7612 
 249   0.0000       2.096151        57.0392 
 250   0.0000       2.125083        57.8265 
 251   0.0000       2.150373        58.5146 
 252   0.0000       2.163826        58.8807 
 253   0.0000       2.171201        59.0814 
 254   0.0000       2.188510        59.5524 
 255   0.0000       2.211776        60.1855 
 256   0.0000       2.241563        60.9960 
 257   0.0000       2.248099        61.1739 
 258   0.0000       2.275091        61.9084 
 259   0.0000       2.287273        62.2399 
 260   0.0000       2.310744        62.8785 
 261   0.0000       2.314121        62.9704 
 262   0.0000       2.327977        63.3475 
 263   0.0000       2.344422        63.7950 
 264   0.0000       2.370975        64.5175 
 265   0.0000       2.384479        64.8850 
 266   0.0000       2.400057        65.3089 
 267   0.0000       2.411368        65.6167 
 268   0.0000       2.439864        66.3921 
 269   0.0000       2.468929        67.1830 
 270   0.0000       2.480008        67.4845 
 271   0.0000       2.485238        67.6268 
 272   0.0000       2.510298        68.3087 
 273   0.0000       2.527544        68.7780 
 274   0.0000       2.538839        69.0853 
 275   0.0000       2.547271        69.3148 
 276   0.0000       2.573490        70.0282 
 277   0.0000       2.585822        70.3638 
 278   0.0000       2.589798        70.4720 
 279   0.0000       2.609135        70.9982 
 280   0.0000       2.624871        71.4264 
 281   0.0000       2.632983        71.6471 
 282   0.0000       2.650882        72.1342 
 283   0.0000       2.667496        72.5863 
 284   0.0000       2.677814        72.8670 
 285   0.0000       2.693153        73.2844 
 286   0.0000       2.705768        73.6277 
 287   0.0000       2.716429        73.9178 
 288   0.0000       2.739787        74.5534 
 289   0.0000       2.755209        74.9731 
 290   0.0000       2.767204        75.2994 
 291   0.0000       2.778031        75.5941 
 292   0.0000       2.801556        76.2342 
 293   0.0000       2.806911        76.3799 
 294   0.0000       2.808584        76.4255 
 295   0.0000       2.812176        76.5232 
 296   0.0000       2.844530        77.4036 
 297   0.0000       2.854803        77.6831 
 298   0.0000       2.866672        78.0061 
 299   0.0000       2.872353        78.1607 
 300   0.0000       2.884410        78.4888 
 301   0.0000       2.901610        78.9568 
 302   0.0000       2.903230        79.0009 
 303   0.0000       2.922763        79.5324 
 304   0.0000       2.935603        79.8818 
 305   0.0000       2.950529        80.2880 
 306   0.0000       2.958321        80.5000 
 307   0.0000       2.962092        80.6026 
 308   0.0000       2.969115        80.7937 
 309   0.0000       2.978077        81.0376 
 310   0.0000       2.994338        81.4801 
 311   0.0000       2.995898        81.5225 
 312   0.0000       3.013815        82.0101 
 313   0.0000       3.018981        82.1506 
 314   0.0000       3.035887        82.6107 
 315   0.0000       3.042989        82.8039 
 316   0.0000       3.054532        83.1180 
 317   0.0000       3.058045        83.2136 
 318   0.0000       3.070396        83.5497 
 319   0.0000       3.080522        83.8253 
 320   0.0000       3.091527        84.1247 
 321   0.0000       3.103220        84.4429 
 322   0.0000       3.112556        84.6970 
 323   0.0000       3.122755        84.9745 
 324   0.0000       3.128418        85.1286 
 325   0.0000       3.142821        85.5205 
 326   0.0000       3.161633        86.0324 
 327   0.0000       3.164359        86.1066 
 328   0.0000       3.174281        86.3766 
 329   0.0000       3.179837        86.5278 
 330   0.0000       3.182406        86.5977 
 331   0.0000       3.194147        86.9172 
 332   0.0000       3.203332        87.1671 
 333   0.0000       3.215628        87.5017 
 334   0.0000       3.232013        87.9475 
 335   0.0000       3.237958        88.1093 
 336   0.0000       3.248152        88.3867 
 337   0.0000       3.267886        88.9237 
 338   0.0000       3.280187        89.2584 
 339   0.0000       3.294470        89.6471 
 340   0.0000       3.302153        89.8562 
 341   0.0000       3.311430        90.1086 
 342   0.0000       3.322701        90.4153 
 343   0.0000       3.330398        90.6247 
 344   0.0000       3.344777        91.0160 
 345   0.0000       3.348525        91.1180 
 346   0.0000       3.359340        91.4123 
 347   0.0000       3.366564        91.6089 
 348   0.0000       3.377666        91.9110 
 349   0.0000       3.385548        92.1254 
 350   0.0000       3.389645        92.2369 
 351   0.0000       3.409435        92.7755 
 352   0.0000       3.418902        93.0331 
 353   0.0000       3.422052        93.1188 
 354   0.0000       3.444503        93.7297 
 355   0.0000       3.454961        94.0143 
 356   0.0000       3.467456        94.3543 
 357   0.0000       3.480680        94.7141 
 358   0.0000       3.489924        94.9657 
 359   0.0000       3.506802        95.4249 
 360   0.0000       3.508869        95.4812 
 361   0.0000       3.521535        95.8258 
 362   0.0000       3.533146        96.1418 
 363   0.0000       3.540956        96.3543 
 364   0.0000       3.556289        96.7715 
 365   0.0000       3.567221        97.0690 
 366   0.0000       3.586142        97.5839 
 367   0.0000       3.589580        97.6774 
 368   0.0000       3.596919        97.8772 
 369   0.0000       3.602555        98.0305 
 370   0.0000       3.619838        98.5008 
 371   0.0000       3.627600        98.7120 
 372   0.0000       3.636138        98.9443 
 373   0.0000       3.645840        99.2083 
 374   0.0000       3.659406        99.5775 
 375   0.0000       3.674631        99.9918 
 376   0.0000       3.678755       100.1040 
 377   0.0000       3.704747       100.8113 
 378   0.0000       3.710693       100.9731 
 379   0.0000       3.724513       101.3491 
 380   0.0000       3.739763       101.7641 
 381   0.0000       3.751507       102.0837 
 382   0.0000       3.765623       102.4678 
 383   0.0000       3.788191       103.0819 
 384   0.0000       3.798281       103.3565 
 385   0.0000       3.807924       103.6189 
 386   0.0000       3.825233       104.0899 
 387   0.0000       3.841383       104.5294 
 388   0.0000       3.857424       104.9658 
 389   0.0000       3.863705       105.1368 
 390   0.0000       3.866117       105.2024 
 391   0.0000       3.881549       105.6223 
 392   0.0000       3.907466       106.3275 
 393   0.0000       3.916089       106.5622 
 394   0.0000       3.923269       106.7576 
 395   0.0000       3.936961       107.1302 
 396   0.0000       3.952543       107.5542 
 397   0.0000       3.966475       107.9333 
 398   0.0000       3.971087       108.0588 
 399   0.0000       3.985379       108.4477 
 400   0.0000       3.993176       108.6598 
 401   0.0000       4.006741       109.0290 
 402   0.0000       4.020029       109.3905 
 403   0.0000       4.040784       109.9553 
 404   0.0000       4.048464       110.1643 
 405   0.0000       4.061942       110.5310 
 406   0.0000       4.069847       110.7462 
 407   0.0000       4.087956       111.2389 
 408   0.0000       4.108243       111.7910 
 409   0.0000       4.127093       112.3039 
 410   0.0000       4.127973       112.3279 
 411   0.0000       4.136328       112.5552 
 412   0.0000       4.149088       112.9024 
 413   0.0000       4.160672       113.2176 
 414   0.0000       4.170047       113.4728 
 415   0.0000       4.178861       113.7126 
 416   0.0000       4.200413       114.2990 
 417   0.0000       4.216713       114.7426 
 418   0.0000       4.219594       114.8210 
 419   0.0000       4.244546       115.5000 
 420   0.0000       4.259501       115.9069 
 421   0.0000       4.266980       116.1104 
 422   0.0000       4.275393       116.3394 
 423   0.0000       4.290078       116.7390 
 424   0.0000       4.314770       117.4109 
 425   0.0000       4.326148       117.7205 
 426   0.0000       4.347934       118.3133 
 427   0.0000       4.370021       118.9143 
 428   0.0000       4.391551       119.5002 
 429   0.0000       4.411789       120.0509 
 430   0.0000       4.432082       120.6031 
 431   0.0000       4.462845       121.4402 
 432   0.0000       4.474470       121.7565 
 433   0.0000       4.494191       122.2932 
 434   0.0000       4.504632       122.5773 
 435   0.0000       4.520706       123.0147 
 436   0.0000       4.534936       123.4019 
 437   0.0000       4.550112       123.8148 
 438   0.0000       4.572216       124.4163 
 439   0.0000       4.592370       124.9647 
 440   0.0000       4.606163       125.3401 
 441   0.0000       4.621627       125.7609 
 442   0.0000       4.642494       126.3287 
 443   0.0000       4.659416       126.7892 
 444   0.0000       4.679342       127.3314 
 445   0.0000       4.689123       127.5975 
 446   0.0000       4.711029       128.1936 
 447   0.0000       4.727050       128.6296 
 448   0.0000       4.739754       128.9753 
 449   0.0000       4.745695       129.1369 
 450   0.0000       4.758243       129.4784 
 451   0.0000       4.766999       129.7166 
 452   0.0000       4.793604       130.4406 
 453   0.0000       4.798107       130.5631 
 454   0.0000       4.818473       131.1173 
 455   0.0000       4.840952       131.7290 
 456   0.0000       4.856954       132.1644 
 457   0.0000       4.875707       132.6747 
 458   0.0000       4.917849       133.8215 
 459   0.0000       4.946327       134.5964 
 460   0.0000       4.960018       134.9689 
 461   0.0000       4.979948       135.5113 
 462   0.0000       5.000781       136.0782 
 463   0.0000       5.016930       136.5176 
 464   0.0000       5.042817       137.2220 
 465   0.0000       5.051257       137.4517 
 466   0.0000       5.068903       137.9319 
 467   0.0000       5.084220       138.3487 
 468   0.0000       5.096130       138.6728 
 469   0.0000       5.110163       139.0546 
 470   0.0000       5.126787       139.5070 
 471   0.0000       5.135644       139.7480 
 472   0.0000       5.142727       139.9407 
 473   0.0000       5.153726       140.2400 
 474   0.0000       5.161529       140.4523 
 475   0.0000       5.171399       140.7209 
 476   0.0000       5.184425       141.0754 
 477   0.0000       5.209167       141.7486 
 478   0.0000       5.227689       142.2527 
 479   0.0000       5.238967       142.5595 
 480   0.0000       5.256290       143.0309 
 481   0.0000       5.272705       143.4776 
 482   0.0000       5.277313       143.6030 
 483   0.0000       5.288391       143.9044 
 484   0.0000       5.305922       144.3815 
 485   0.0000       5.321292       144.7997 
 486   0.0000       5.352215       145.6412 
 487   0.0000       5.360394       145.8637 
 488   0.0000       5.366959       146.0424 
 489   0.0000       5.379160       146.3744 
 490   0.0000       5.406359       147.1145 
 491   0.0000       5.427815       147.6984 
 492   0.0000       5.451014       148.3296 
 493   0.0000       5.490879       149.4144 
 494   0.0000       5.503114       149.7474 
 495   0.0000       5.508938       149.9058 
 496   0.0000       5.526003       150.3702 
 497   0.0000       5.531205       150.5117 
 498   0.0000       5.543894       150.8570 
 499   0.0000       5.554037       151.1330 
 500   0.0000       5.584995       151.9754 
 501   0.0000       5.595275       152.2552 
 502   0.0000       5.606091       152.5495 
 503   0.0000       5.631770       153.2483 
 504   0.0000       5.664870       154.1489 
 505   0.0000       5.668988       154.2610 
 506   0.0000       5.676845       154.4748 
 507   0.0000       5.717444       155.5796 
 508   0.0000       5.750549       156.4804 
 509   0.0000       5.789304       157.5350 
 510   0.0000       5.794211       157.6685 
 511   0.0000       5.828393       158.5986 
 512   0.0000       5.864187       159.5726 
 513   0.0000       5.921856       161.1419 
 514   0.0000       5.936908       161.5515 
 515   0.0000       5.952110       161.9652 
 516   0.0000       5.974606       162.5773 
 517   0.0000       5.984308       162.8413 
 518   0.0000       6.010247       163.5471 
 519   0.0000       6.084105       165.5569 
 520   0.0000       6.101565       166.0320 
 521   0.0000       6.139269       167.0580 
 522   0.0000       6.168205       167.8454 
 523   0.0000       6.185396       168.3132 
 524   0.0000       6.238462       169.7572 
 525   0.0000       6.302932       171.5115 
 526   0.0000       6.321296       172.0112 
 527   0.0000       6.359289       173.0450 
 528   0.0000       6.367423       173.2664 
 529   0.0000       6.386924       173.7971 
 530   0.0000       6.408384       174.3810 
 531   0.0000       6.426213       174.8662 
 532   0.0000       6.439581       175.2299 
 533   0.0000       6.468984       176.0300 
 534   0.0000       6.478983       176.3021 
 535   0.0000       6.524125       177.5305 
 536   0.0000       6.537473       177.8937 
 537   0.0000       6.552215       178.2948 
 538   0.0000       6.571498       178.8196 
 539   0.0000       6.608523       179.8271 
 540   0.0000       6.631395       180.4494 
 541   0.0000       6.711919       182.6406 
 542   0.0000       6.730652       183.1504 
 543   0.0000       6.756297       183.8482 
 544   0.0000       6.779908       184.4907 
 545   0.0000       6.790718       184.7848 
 546   0.0000       6.843424       186.2190 
 547   0.0000       6.896428       187.6613 
 548   0.0000       6.935349       188.7205 
 549   0.0000       7.027426       191.2260 
 550   0.0000       7.076963       192.5740 
 551   0.0000       7.082327       192.7199 
 552   0.0000       7.112229       193.5336 
 553   0.0000       7.119431       193.7296 
 554   0.0000       7.219579       196.4547 
 555   0.0000       7.254138       197.3951 
 556   0.0000       7.347466       199.9347 
 557   0.0000       7.435791       202.3382 
 558   0.0000      23.091698       628.3570 
 559   0.0000      23.169594       630.4767 
 560   0.0000      23.209548       631.5639 
 561   0.0000      23.286194       633.6496 
 562   0.0000      23.322988       634.6508 
 563   0.0000      23.342480       635.1812 
 564   0.0000      32.714726       890.2130 
 565   0.0000      32.767674       891.6537 
 566   0.0000      32.879340       894.6923 
 567   0.0000      43.832569      1192.7448 
 568   0.0000      43.847268      1193.1448 
 569   0.0000      43.908567      1194.8128 
 570   0.0000      44.014328      1197.6907 

                    ********************************
                    * MULLIKEN POPULATION ANALYSIS *
                    ********************************

-----------------------
MULLIKEN ATOMIC CHARGES
-----------------------
   0 N :   -0.171983
   1 H :    0.200019
   2 C :   -0.068016
   3 C :    0.357689
   4 H :    0.159300
   5 H :    0.153223
   6 O :   -0.423959
   7 C :    0.256469
   8 C :   -0.052613
   9 O :   -0.438366
  10 N :   -0.184550
  11 H :    0.126490
  12 H :    0.154208
  13 H :    0.167270
  14 C :    0.194828
  15 C :   -0.134498
  16 O :   -0.274111
  17 H :    0.166447
  18 H :    0.165917
  19 O :   -0.227825
  20 H :    0.254316
  21 N :   -0.102291
  22 H :    0.234918
  23 H :    0.242194
  24 H :    0.244923
Sum of atomic charges:    1.0000000

--------------------------------
MULLIKEN REDUCED ORBITAL CHARGES
--------------------------------
  0 N s       :     3.411010  s :     3.411010
      pz      :     1.212105  p :     3.701242
      px      :     1.068295
      py      :     1.420842
      dz2     :     0.010672  d :     0.055869
      dxz     :     0.016643
      dyz     :     0.008414
      dx2y2   :     0.011250
      dxy     :     0.008890
      f0      :     0.000410  f :     0.003862
      f+1     :     0.000487
      f-1     :     0.000644
      f+2     :     0.000740
      f-2     :     0.000538
      f+3     :     0.000561
      f-3     :     0.000481
  1 H s       :     0.733638  s :     0.733638
      pz      :     0.019907  p :     0.061052
      px      :     0.019486
      py      :     0.021660
      dz2     :     0.001057  d :     0.005291
      dxz     :     0.001339
      dyz     :     0.000472
      dx2y2   :     0.000919
      dxy     :     0.001503
  2 C s       :     3.150488  s :     3.150488
      pz      :     0.873523  p :     2.802931
      px      :     1.106186
      py      :     0.823222
      dz2     :     0.029461  d :     0.106804
      dxz     :     0.020167
      dyz     :     0.018079
      dx2y2   :     0.026858
      dxy     :     0.012239
      f0      :     0.001650  f :     0.007793
      f+1     :     0.000512
      f-1     :     0.001675
      f+2     :     0.001480
      f-2     :     0.000994
      f+3     :     0.000754
      f-3     :     0.000728
  3 C s       :     3.079975  s :     3.079975
      pz      :     0.701406  p :     2.276667
      px      :     0.713876
      py      :     0.861385
      dz2     :     0.077132  d :     0.261120
      dxz     :     0.041099
      dyz     :     0.067105
      dx2y2   :     0.031676
      dxy     :     0.044108
      f0      :     0.005168  f :     0.024549
      f+1     :     0.002462
      f-1     :     0.004673
      f+2     :     0.004101
      f-2     :     0.004733
      f+3     :     0.001566
      f-3     :     0.001847
  4 H s       :     0.803712  s :     0.803712
      pz      :     0.008665  p :     0.034919
      px      :     0.018013
      py      :     0.008241
      dz2     :     0.000289  d :     0.002069
      dxz     :     0.000552
      dyz     :     0.000181
      dx2y2   :     0.000325
      dxy     :     0.000723
  5 H s       :     0.809847  s :     0.809847
      pz      :     0.012296  p :     0.034788
      px      :     0.013432
      py      :     0.009060
      dz2     :     0.000672  d :     0.002142
      dxz     :     0.000376
      dyz     :     0.000484
      dx2y2   :     0.000365
      dxy     :     0.000244
  6 O s       :     3.819243  s :     3.819243
      pz      :     1.406770  p :     4.575139
      px      :     1.414802
      py      :     1.753567
      dz2     :     0.009054  d :     0.027700
      dxz     :     0.007432
      dyz     :     0.006480
      dx2y2   :     0.002630
      dxy     :     0.002105
      f0      :     0.000459  f :     0.001877
      f+1     :     0.000386
      f-1     :     0.000313
      f+2     :     0.000319
[...]
     53       0.000135  -0.003412   0.203627   0.172962   0.014409  -0.003712
     54       0.000036   0.008879  -0.539203  -0.558233  -0.007809  -0.006158
     55       0.000002  -0.000266   0.012480   0.006348   0.000422   0.001119
     56       0.000038   0.002554  -0.161625  -0.187036  -0.001791  -0.002244
     57      -0.000033  -0.000024   0.000621  -0.000613  -0.000144  -0.000132
     58      -0.000128   0.000006  -0.000086   0.000093   0.000065   0.000131
     59      -0.000073  -0.000046   0.001431  -0.001425  -0.000275  -0.000177
     60      -0.001401   0.000162  -0.003619   0.003629   0.001078   0.001452
     61      -0.000218  -0.000163   0.005280  -0.005327  -0.001625  -0.002946
     62      -0.000250   0.000141  -0.003980   0.003953   0.000954   0.000796
     63      -0.000060   0.001111  -0.045782   0.043973   0.039238   0.035713
     64       0.000001   0.000308  -0.011405   0.010402   0.036945  -0.068987
     65      -0.000020   0.000398  -0.017293   0.018344  -0.037308  -0.001930
     66      -0.000007   0.000881  -0.035022   0.042322  -0.173305  -0.551696
     67      -0.000026  -0.001179   0.046564  -0.056364   0.243949   0.750126
     68       0.000009  -0.000164   0.014442  -0.013484   0.061165   0.192957
     69       0.000885  -0.015791   0.658769  -0.662688  -0.059203  -0.045923
     70       0.000265  -0.002789   0.132747  -0.136102  -0.006115  -0.023225
     71       0.000082  -0.004990   0.202866  -0.215906  -0.028225  -0.015108
     72      -0.000227  -0.000278  -0.014434   0.023595  -0.308120   0.106478
     73      -0.000118   0.000496  -0.028030   0.050512  -0.748555   0.225896
     74       0.000065  -0.000218   0.019529  -0.024843   0.492236  -0.156011
                 72         73         74    
      0      -0.000003  -0.060214   0.000095
      1      -0.000052   0.012478  -0.000114
      2      -0.000027   0.041294  -0.000136
      3      -0.001029   0.807676  -0.001689
      4       0.000510  -0.164909   0.000472
      5       0.000462  -0.561095   0.001036
      6       0.000014  -0.000416   0.000264
      7      -0.000004  -0.001252  -0.000588
      8       0.000051  -0.001115   0.000414
      9      -0.000062   0.000070  -0.000621
     10       0.000046  -0.000145   0.002342
     11      -0.000108  -0.000014   0.000512
     12      -0.000146   0.007059  -0.001478
     13      -0.000068   0.002308  -0.001266
     14      -0.000089   0.002472  -0.001102
     15       0.000122   0.002404   0.001194
     16       0.000021   0.000153   0.000185
     17      -0.000047  -0.007009  -0.002842
     18      -0.000026  -0.000033  -0.000573
     19      -0.000071  -0.000014  -0.000122
     20       0.000061  -0.000054  -0.000933
     21       0.000267   0.000419   0.000087
     22       0.000054   0.000683   0.000076
     23      -0.000017   0.001382   0.000060
     24      -0.001005  -0.000256  -0.000005
     25      -0.000215   0.000003  -0.000009
     26      -0.000871  -0.000052   0.000005
     27      -0.000119   0.001177  -0.000036
     28       0.000012  -0.000132  -0.000041
     29       0.000016  -0.000493  -0.000018
     30      -0.037612  -0.000032  -0.000060
     31      -0.061755  -0.000011  -0.000023
     32       0.009248   0.000034  -0.000023
     33       0.003355   0.004026  -0.000025
     34      -0.001613  -0.000327   0.000040
     35       0.000527  -0.000722  -0.000010
     36       0.005038   0.000376   0.000044
     37       0.010746  -0.000146   0.000084
     38      -0.002429   0.000155  -0.000051
     39       0.498949   0.000585   0.000221
     40       0.856411   0.000904   0.000411
     41      -0.109906  -0.000770   0.000321
     42       0.001194  -0.000056   0.000094
     43      -0.001598   0.000004   0.000011
     44      -0.000681  -0.000024  -0.000000
     45      -0.000239  -0.000002  -0.000011
     46      -0.000046  -0.000003   0.000011
     47       0.000318  -0.000029   0.000018
     48       0.000715   0.000029  -0.000032
     49       0.000682   0.000009  -0.000016
     50      -0.000091   0.000016  -0.000000
     51       0.003618  -0.000008   0.000078
     52       0.002895   0.000022  -0.000090
     53      -0.001999  -0.000010   0.000054
     54       0.001322   0.000020   0.000043
     55      -0.000275   0.000003  -0.000035
     56      -0.000354   0.000012   0.000005
     57       0.000029  -0.000079  -0.026002
     58      -0.000028   0.000049   0.055156
     59       0.000026  -0.000059  -0.008420
     60      -0.000166   0.000961   0.424515
     61       0.000427  -0.001870  -0.892163
     62      -0.000194   0.000309   0.141088
     63      -0.000208   0.000074  -0.000670
     64      -0.000182  -0.000128   0.000023
     65      -0.000009   0.000038  -0.000140
     66      -0.000513  -0.000621   0.001483
     67       0.001172   0.000877  -0.002464
     68       0.000338   0.000338  -0.000700
     69       0.003334  -0.000522   0.009367
     70       0.001614   0.000495   0.001602
     71       0.001448  -0.000322   0.003241
     72       0.000207  -0.000300   0.000248
     73       0.001107   0.000890   0.000264
     74      -0.000355  -0.000581  -0.000166


-----------
IR SPECTRUM
-----------

 Mode   freq       eps      Int      T**2         TX        TY        TZ
       cm**-1   L/(mol*cm) km/mol    a.u.
----------------------------------------------------------------------------
  6:     44.73   0.001318    6.66  0.009198  (-0.007012  0.012778  0.094790)
  7:     54.97   0.000246    1.24  0.001395  (-0.014992 -0.007178 -0.033450)
  8:     69.94   0.001284    6.49  0.005731  (-0.028201  0.023648  0.066154)
  9:     95.61   0.000436    2.20  0.001423  (-0.029079  0.008916 -0.022303)
 10:    122.65   0.004435   22.41  0.011285  (-0.085005  0.015859 -0.061703)
 11:    139.49   0.006307   31.87  0.014110  ( 0.015036  0.105298 -0.052878)
 12:    198.17   0.008302   41.96  0.013074  (-0.092686 -0.001992 -0.066926)
 13:    207.69   0.000125    0.63  0.000188  ( 0.010330 -0.004954  0.007559)
 14:    231.71   0.003620   18.30  0.004876  ( 0.038981 -0.019120 -0.054688)
 15:    266.64   0.000677    3.42  0.000793  ( 0.008487  0.021079 -0.016625)
 16:    283.16   0.002160   10.91  0.002380  (-0.021707 -0.037890 -0.021759)
 17:    304.83   0.003000   15.16  0.003071  ( 0.033248 -0.039405 -0.020329)
 18:    357.24   0.004863   24.57  0.004248  ( 0.034195 -0.052718  0.017301)
 19:    369.76   0.002709   13.69  0.002286  ( 0.045165  0.000905  0.015665)
 20:    436.77   0.003659   18.49  0.002614  (-0.037798  0.026758 -0.021666)
 21:    476.17   0.011925   60.26  0.007815  (-0.019722  0.084998 -0.014199)
 22:    503.40   0.006203   31.35  0.003845  ( 0.033290  0.031972  0.041413)
 23:    520.22   0.005352   27.04  0.003210  ( 0.020164 -0.004799 -0.052732)
 24:    583.20   0.011056   55.87  0.005916  (-0.018703 -0.000952  0.074601)
 25:    614.31   0.005727   28.94  0.002909  ( 0.026426 -0.046476 -0.007144)
 26:    669.54   0.023949  121.03  0.011162  ( 0.077368  0.044051 -0.056886)
 27:    674.61   0.008776   44.35  0.004060  (-0.006062  0.010292  0.062586)
 28:    734.33   0.006399   32.34  0.002719  (-0.033683  0.018541  0.035226)
 29:    771.89   0.000461    2.33  0.000187  (-0.008087 -0.008967 -0.006385)
 30:    809.62   0.003211   16.23  0.001238  ( 0.009625  0.003405 -0.033668)
 31:    851.51   0.003245   16.40  0.001189  ( 0.000580 -0.022973 -0.025715)
 32:    878.65   0.002903   14.67  0.001031  ( 0.026269  0.010491  0.015195)
 33:    905.59   0.000895    4.53  0.000309  (-0.001586 -0.015016 -0.008977)
 34:    917.18   0.002338   11.81  0.000795  ( 0.004029  0.017169  0.022008)
 35:    977.94   0.000821    4.15  0.000262  (-0.010555  0.005372  0.011029)
 36:   1029.22   0.000847    4.28  0.000257  (-0.013108 -0.002560 -0.008853)
 37:   1048.73   0.002108   10.65  0.000627  ( 0.024286  0.006127 -0.000136)
 38:   1060.59   0.002017   10.20  0.000594  ( 0.021455 -0.000972 -0.011504)
 39:   1122.12   0.003726   18.83  0.001036  (-0.009910  0.029694 -0.007497)
 40:   1134.14   0.009331   47.16  0.002567  ( 0.042391 -0.025274  0.011475)
 41:   1149.09   0.002020   10.21  0.000549  (-0.010021  0.015465  0.014455)
 42:   1206.85   0.048936  247.30  0.012654  (-0.028537 -0.079551 -0.074236)
 43:   1242.74   0.005925   29.94  0.001488  ( 0.036664 -0.001152  0.011925)
 44:   1275.19   0.007514   37.97  0.001839  (-0.035940  0.020984 -0.010332)
 45:   1298.34   0.002755   13.92  0.000662  ( 0.016475 -0.019745  0.000877)
 46:   1318.07   0.006471   32.70  0.001532  (-0.014750 -0.027402 -0.023740)
 47:   1339.57   0.004448   22.48  0.001036  ( 0.018633 -0.021908 -0.014460)
 48:   1349.37   0.006837   34.55  0.001581  ( 0.019774  0.024796  0.023988)
 49:   1388.14   0.000718    3.63  0.000161  ( 0.006179 -0.001521  0.010997)
 50:   1412.88   0.000774    3.91  0.000171  ( 0.012790 -0.002352 -0.001362)
 51:   1450.81   0.007582   38.32  0.001631  ( 0.003042 -0.038586  0.011520)
 52:   1471.89   0.011110   56.15  0.002356  (-0.001914  0.032518  0.035979)
 53:   1489.89   0.004031   20.37  0.000844  (-0.007084 -0.024530 -0.013870)
 54:   1505.06   0.004834   24.43  0.001002  ( 0.018783 -0.022980  0.011018)
 55:   1559.53   0.021420  108.25  0.004286  (-0.064007  0.013685 -0.001377)
 56:   1572.85   0.011783   59.55  0.002338  ( 0.015684 -0.000993 -0.045726)
 57:   1579.00   0.055687  281.42  0.011006  ( 0.077305  0.036466  0.060826)
 58:   1648.73   0.029161  147.37  0.005520  (-0.067618  0.028365  0.011947)
 59:   1666.47   0.009291   46.95  0.001740  (-0.015395 -0.038444 -0.004981)
 60:   1760.65   0.030368  153.47  0.005383  ( 0.021947  0.000434 -0.070005)
 61:   1797.93   0.092781  468.88  0.016104  (-0.095896 -0.003170 -0.083053)
 62:   1842.24   0.062825  317.49  0.010642  (-0.087886 -0.053404 -0.008131)
 63:   3103.61   0.001093    5.52  0.000110  ( 0.001595  0.010282  0.001265)
 64:   3124.57   0.002277   11.51  0.000227  (-0.014708  0.003288 -0.000511)
 65:   3129.05   0.000302    1.53  0.000030  (-0.001096  0.001754 -0.005082)
 66:   3167.90   0.000120    0.60  0.000012  (-0.002897 -0.000288  0.001820)
 67:   3194.75   0.000584    2.95  0.000057  (-0.002184 -0.006516 -0.003137)
 68:   3202.50   0.062244  314.56  0.006065  ( 0.064965  0.014730  0.040346)
 69:   3207.50   0.067161  339.40  0.006534  (-0.067132 -0.014555 -0.042610)
 70:   3440.58   0.014145   71.48  0.001283  (-0.021815 -0.021910  0.018084)
 71:   3544.50   0.021182  107.05  0.001865  (-0.025303  0.034946 -0.001858)
 72:   3635.79   0.005886   29.75  0.000505  ( 0.016816  0.014385 -0.003937)
 73:   3689.39   0.013796   69.72  0.001167  ( 0.031967 -0.004173 -0.011296)
 74:   3796.80   0.025762  130.19  0.002117  ( 0.008696 -0.044088 -0.009903)

* The epsilon (eps) is given for a Dirac delta lineshape.
** The dipole moment derivative (T) already includes vibrational overlap.

The first frequency considered to be a vibration is 6
The total number of vibrations considered is 69


--------------------------
THERMOCHEMISTRY AT 298.15K
--------------------------

Temperature         ... 298.15 K
Pressure            ... 1.00 atm
Total Mass          ... 190.18 AMU

Throughout the following assumptions are being made:
  (1) The electronic state is orbitally nondegenerate
  (2) There are no thermally accessible electronically excited states
  (3) Hindered rotations indicated by low frequency modes are not
      treated as such but are treated as vibrations and this may
      cause some error
  (4) All equations used are the standard statistical mechanics
      equations for an ideal gas
  (5) All vibrations are strictly harmonic

freq.      44.73  E(vib)   ...       0.53 
freq.      54.97  E(vib)   ...       0.52 
freq.      69.94  E(vib)   ...       0.50 
freq.      95.61  E(vib)   ...       0.47 
freq.     122.65  E(vib)   ...       0.43 
freq.     139.49  E(vib)   ...       0.42 
freq.     198.17  E(vib)   ...       0.35 
freq.     207.69  E(vib)   ...       0.34 
freq.     231.71  E(vib)   ...       0.32 
freq.     266.64  E(vib)   ...       0.29 
freq.     283.16  E(vib)   ...       0.28 
freq.     304.83  E(vib)   ...       0.26 
freq.     357.24  E(vib)   ...       0.22 
freq.     369.76  E(vib)   ...       0.21 
freq.     436.77  E(vib)   ...       0.17 
freq.     476.17  E(vib)   ...       0.15 
freq.     503.40  E(vib)   ...       0.14 
freq.     520.22  E(vib)   ...       0.13 
freq.     583.20  E(vib)   ...       0.11 
freq.     614.31  E(vib)   ...       0.10 
freq.     669.54  E(vib)   ...       0.08 
freq.     674.61  E(vib)   ...       0.08 
freq.     734.33  E(vib)   ...       0.06 
freq.     771.89  E(vib)   ...       0.05 
freq.     809.62  E(vib)   ...       0.05 
freq.     851.51  E(vib)   ...       0.04 
freq.     878.65  E(vib)   ...       0.04 
freq.     905.59  E(vib)   ...       0.03 
freq.     917.18  E(vib)   ...       0.03 
freq.     977.94  E(vib)   ...       0.03 
freq.    1029.22  E(vib)   ...       0.02 
freq.    1048.73  E(vib)   ...       0.02 
freq.    1060.59  E(vib)   ...       0.02 
freq.    1122.12  E(vib)   ...       0.01 
freq.    1134.14  E(vib)   ...       0.01 
freq.    1149.09  E(vib)   ...       0.01 
freq.    1206.85  E(vib)   ...       0.01 
freq.    1242.74  E(vib)   ...       0.01 
freq.    1275.19  E(vib)   ...       0.01 
freq.    1298.34  E(vib)   ...       0.01 
freq.    1318.07  E(vib)   ...       0.01 
freq.    1339.57  E(vib)   ...       0.01 
freq.    1349.37  E(vib)   ...       0.01 
freq.    1388.14  E(vib)   ...       0.00 
freq.    1412.88  E(vib)   ...       0.00 
freq.    1450.81  E(vib)   ...       0.00 
freq.    1471.89  E(vib)   ...       0.00 
freq.    1489.89  E(vib)   ...       0.00 
freq.    1505.06  E(vib)   ...       0.00 
freq.    1559.53  E(vib)   ...       0.00 
freq.    1572.85  E(vib)   ...       0.00 
freq.    1579.00  E(vib)   ...       0.00 
freq.    1648.73  E(vib)   ...       0.00 
freq.    1666.47  E(vib)   ...       0.00 
freq.    1760.65  E(vib)   ...       0.00 
freq.    1797.93  E(vib)   ...       0.00 
freq.    1842.24  E(vib)   ...       0.00 
freq.    3103.61  E(vib)   ...       0.00 
freq.    3124.57  E(vib)   ...       0.00 
freq.    3129.05  E(vib)   ...       0.00 
freq.    3167.90  E(vib)   ...       0.00 
freq.    3194.75  E(vib)   ...       0.00 
freq.    3202.50  E(vib)   ...       0.00 
freq.    3207.50  E(vib)   ...       0.00 
freq.    3440.58  E(vib)   ...       0.00 
freq.    3544.50  E(vib)   ...       0.00 
freq.    3635.79  E(vib)   ...       0.00 
freq.    3689.39  E(vib)   ...       0.00 
freq.    3796.80  E(vib)   ...       0.00 

------------
INNER ENERGY
------------

The inner energy is: U= E(el) + E(ZPE) + E(vib) + E(rot) + E(trans)
    E(el)   - is the total energy from the electronic structure calculation
              = E(kin-el) + E(nuc-el) + E(el-el) + E(nuc-nuc)
    E(ZPE)  - the the zero temperature vibrational energy from the frequency calculation
    E(vib)  - the the finite temperature correction to E(ZPE) due to population
              of excited vibrational states
    E(rot)  - is the rotational thermal energy
    E(trans)- is the translational thermal energy

Summary of contributions to the inner energy U:
Electronic energy                ...   -701.34439846 Eh
Zero point energy                ...      0.20965649 Eh     131.56 kcal/mol
Thermal vibrational correction   ...      0.01054526 Eh       6.62 kcal/mol
Thermal rotational correction    ...      0.00141627 Eh       0.89 kcal/mol
Thermal translational correction ...      0.00141627 Eh       0.89 kcal/mol
-----------------------------------------------------------------------
Total thermal energy                   -701.12136417 Eh


Summary of corrections to the electronic energy:
(perhaps to be used in another calculation)
Total thermal correction                  0.01337780 Eh       8.39 kcal/mol
Non-thermal (ZPE) correction              0.20965649 Eh     131.56 kcal/mol
-----------------------------------------------------------------------
Total correction                          0.22303429 Eh     139.96 kcal/mol


--------
ENTHALPY
--------

The enthalpy is H = U + kB*T
                kB is Boltzmann's constant
Total free energy                 ...   -701.12136417 Eh 
Thermal Enthalpy correction       ...      0.00094421 Eh       0.59 kcal/mol
-----------------------------------------------------------------------
Total Enthalpy                    ...   -701.12041996 Eh


Note: Only C1 symmetry has been detected, increase convergence thresholds 
      if your molecule has a higher symmetry. Symmetry factor of 1.0 is   
      used for the rotational entropy correction. 
 

Note: Rotational entropy computed according to Herzberg 
Infrared and Raman Spectra, Chapter V,1, Van Nostrand Reinhold, 1945 
Point Group:  C1, Symmetry Number:   1  
Rotational constants in cm-1:     0.044469     0.018678     0.014948 

Vibrational entropy computed according to the QRRHO of S. Grimme
Chem.Eur.J. 2012 18 9955


-------
ENTROPY
-------

The entropy contributions are T*S = T*(S(el)+S(vib)+S(rot)+S(trans))
     S(el)   - electronic entropy
     S(vib)  - vibrational entropy
     S(rot)  - rotational entropy
     S(trans)- translational entropy
The entropies will be listed as multiplied by the temperature to get
units of energy

Electronic entropy                ...      0.00000000 Eh      0.00 kcal/mol
Vibrational entropy               ...      0.01848621 Eh     11.60 kcal/mol
Rotational entropy                ...      0.01484378 Eh      9.31 kcal/mol
Translational entropy             ...      0.01978162 Eh     12.41 kcal/mol
-----------------------------------------------------------------------
Final entropy term                ...      0.05311161 Eh     33.33 kcal/mol

In case the symmetry of your molecule has not been determined correctly
or in case you have a reason to use a different symmetry number we print 
out the resulting rotational entropy values for sn=1,12 :
 --------------------------------------------------------
|  sn= 1 | S(rot)=       0.01484378 Eh      9.31 kcal/mol|
|  sn= 2 | S(rot)=       0.01418933 Eh      8.90 kcal/mol|
|  sn= 3 | S(rot)=       0.01380649 Eh      8.66 kcal/mol|
|  sn= 4 | S(rot)=       0.01353487 Eh      8.49 kcal/mol|
|  sn= 5 | S(rot)=       0.01332418 Eh      8.36 kcal/mol|
|  sn= 6 | S(rot)=       0.01315204 Eh      8.25 kcal/mol|
|  sn= 7 | S(rot)=       0.01300649 Eh      8.16 kcal/mol|
|  sn= 8 | S(rot)=       0.01288041 Eh      8.08 kcal/mol|
|  sn= 9 | S(rot)=       0.01276920 Eh      8.01 kcal/mol|
|  sn=10 | S(rot)=       0.01266973 Eh      7.95 kcal/mol|
|  sn=11 | S(rot)=       0.01257974 Eh      7.89 kcal/mol|
|  sn=12 | S(rot)=       0.01249758 Eh      7.84 kcal/mol|
 --------------------------------------------------------


-------------------
GIBBS FREE ENERGY
-------------------

The Gibbs free energy is G = H - T*S

Total enthalpy                    ...   -701.12041996 Eh 
Total entropy correction          ...     -0.05311161 Eh    -33.33 kcal/mol
-----------------------------------------------------------------------
Final Gibbs free energy         ...   -701.17353157 Eh

For completeness - the Gibbs free energy minus the electronic energy
G-E(el)                           ...      0.17086689 Eh    107.22 kcal/mol


Timings for individual modules:

Sum of individual times         ...     9155.741 sec (= 152.596 min)
GTO integral calculation        ...       34.187 sec (=   0.570 min)   0.4 %
SCF iterations                  ...     3138.587 sec (=  52.310 min)  34.3 %
SCF Gradient evaluation         ...      600.239 sec (=  10.004 min)   6.6 %
Geometry relaxation             ...        0.917 sec (=   0.015 min)   0.0 %
Analytical frequency calculation...     4880.748 sec (=  81.346 min)  53.3 %
CHELPG charge generation        ...      501.064 sec (=   8.351 min)   5.5 %
                             ****ORCA TERMINATED NORMALLY****
TOTAL RUN TIME: 0 days 2 hours 33 minutes 34 seconds 928 msec
