 Entering Gaussian System, Link 0=g16
 Initial command:
 /opt/software/gaussian/g16.a03/l1.exe "/localscratch/cieritan.6775351.0/Gau-28786.inp" -scrdir="/localscratch/cieritan.6775351.0/"
 Entering Link 1 = /opt/software/gaussian/g16.a03/l1.exe PID=     28787.
  
 Copyright (c) 1988,1990,1992,1993,1995,1998,2003,2009,2016,
            Gaussian, Inc.  All Rights Reserved.
  
 This is part of the Gaussian(R) 16 program.  It is based on
 the Gaussian(R) 09 system (copyright 2009, Gaussian, Inc.),
 the Gaussian(R) 03 system (copyright 2003, Gaussian, Inc.),
 the Gaussian(R) 98 system (copyright 1998, Gaussian, Inc.),
 the Gaussian(R) 94 system (copyright 1995, Gaussian, Inc.),
 the Gaussian 92(TM) system (copyright 1992, Gaussian, Inc.),
 the Gaussian 90(TM) system (copyright 1990, Gaussian, Inc.),
 the Gaussian 88(TM) system (copyright 1988, Gaussian, Inc.),
 the Gaussian 86(TM) system (copyright 1986, Carnegie Mellon
 University), and the Gaussian 82(TM) system (copyright 1983,
 Carnegie Mellon University). Gaussian is a federally registered
 trademark of Gaussian, Inc.
  
 This software contains proprietary and confidential information,
 including trade secrets, belonging to Gaussian, Inc.
  
 This software is provided under written license and may be
 used, copied, transmitted, or stored only in accord with that
 written license.
  
 The following legend is applicable only to US Government
 contracts under FAR:
  
                    RESTRICTED RIGHTS LEGEND
  
 Use, reproduction and disclosure by the US Government is
 subject to restrictions as set forth in subparagraphs (a)
 and (c) of the Commercial Computer Software - Restricted
 Rights clause in FAR 52.227-19.
  
 Gaussian, Inc.
 340 Quinnipiac St., Bldg. 40, Wallingford CT 06492
  
  
 ---------------------------------------------------------------
 Warning -- This program may not be used in any manner that
 competes with the business of Gaussian, Inc. or will provide
 assistance to any competitor of Gaussian, Inc.  The licensee
 of this program is prohibited from giving any competitor of
 Gaussian, Inc. access to this program.  By using this program,
 the user acknowledges that Gaussian, Inc. is engaged in the
 business of creating and licensing software in the field of
 computational chemistry and represents and warrants to the
 licensee that it is not a competitor of Gaussian, Inc. and that
 it will not use this program in any manner prohibited above.
 ---------------------------------------------------------------
  

 Cite this work as:
 Gaussian 16, Revision A.03,
 M. J. Frisch, G. W. Trucks, H. B. Schlegel, G. E. Scuseria, 
 M. A. Robb, J. R. Cheeseman, G. Scalmani, V. Barone, 
 G. A. Petersson, H. Nakatsuji, X. Li, M. Caricato, A. V. Marenich, 
 J. Bloino, B. G. Janesko, R. Gomperts, B. Mennucci, H. P. Hratchian, 
 J. V. Ortiz, A. F. Izmaylov, J. L. Sonnenberg, D. Williams-Young, 
 F. Ding, F. Lipparini, F. Egidi, J. Goings, B. Peng, A. Petrone, 
 T. Henderson, D. Ranasinghe, V. G. Zakrzewski, J. Gao, N. Rega, 
 G. Zheng, W. Liang, M. Hada, M. Ehara, K. Toyota, R. Fukuda, 
 J. Hasegawa, M. Ishida, T. Nakajima, Y. Honda, O. Kitao, H. Nakai, 
 T. Vreven, K. Throssell, J. A. Montgomery, Jr., J. E. Peralta, 
 F. Ogliaro, M. J. Bearpark, J. J. Heyd, E. N. Brothers, K. N. Kudin, 
 V. N. Staroverov, T. A. Keith, R. Kobayashi, J. Normand, 
 K. Raghavachari, A. P. Rendell, J. C. Burant, S. S. Iyengar, 
 J. Tomasi, M. Cossi, J. M. Millam, M. Klene, C. Adamo, R. Cammi, 
 J. W. Ochterski, R. L. Martin, K. Morokuma, O. Farkas, 
 J. B. Foresman, and D. J. Fox, Gaussian, Inc., Wallingford CT, 2016.
 
 ******************************************
 Gaussian 16:  ES64L-G16RevA.03 25-Dec-2016
                30-Jul-2018 
 ******************************************
 %rwf=/scratch/cieritan/rwf/THIACLOPRID_4.rwf
 %chk=/scratch/cieritan/chk/THIACLOPRID_4.chk
 %mem=4000mb
 %nproc=8
 Will use up to    8 processors via shared memory.
 ----------------------------------------------------------------------
 # opt=maxcycles=150 freq b3lyp/6-31++g(d,p) empiricaldispersion=GD3 in
 t=ultrafine scf=xqc pop=(mk,dipole)
 ----------------------------------------------------------------------
 1/6=150,18=20,19=15,26=4,38=1/1,3;
 2/9=110,12=2,17=6,18=5,40=1/2;
 3/5=1,6=6,7=1111,11=2,25=1,30=1,71=1,74=-5,75=-5,124=31/1,2,3;
 4//1;
 5/5=2,8=3,13=1,38=5/2,8;
 6/7=2,8=2,9=2,10=2,15=24,20=1,28=1/1,2;
 7//1,2,3,16;
 1/6=150,18=20,19=15,26=4/3(2);
 2/9=110/2;
 99//99;
 2/9=110/2;
 3/5=1,6=6,7=1111,11=2,25=1,30=1,71=1,74=-5,75=-5,124=31/1,2,3;
 4/5=5,16=3,69=1/1;
 5/5=2,8=3,13=1,38=5/2,8;
 7//1,2,3,16;
 1/6=150,18=20,19=15,26=4/3(-5);
 2/9=110/2;
 6/7=2,8=2,9=2,10=2,15=24,19=2,20=1,28=1/1,2;
 99/9=1/99;
 ----------------------------
 Original File: THIACLOPRID_4
 ----------------------------
 Symbolic Z-matrix:
 Charge =  1 Multiplicity = 1
 Cl                    4.80037   0.54717  -0.66097 
 S                    -3.41295   0.56074  -0.6509 
 N                    -1.6419   -1.04446   0.40968 
 N                    -1.11308   1.31656   0.58368 
 N                     2.9312    0.07175   1.11401 
 N                    -1.85184   3.70269   0.11209 
 C                    -2.67531  -1.99308  -0.13128 
 C                    -0.45548  -1.60925   1.12151 
 C                    -3.83905  -1.20683  -0.72575 
 C                    -1.89672   0.26175   0.19561 
 C                     0.84157  -1.05443   0.61635 
 C                     1.23908  -1.21555  -0.72447 
 C                     1.73497  -0.42213   1.50754 
 C                     2.47116  -0.72313  -1.14258 
 C                     3.29014  -0.07999  -0.18963 
 C                    -1.52736   2.61261   0.3164 
 H                    -3.02009  -2.65792   0.70109 
 H                    -2.19155  -2.64869  -0.89861 
 H                    -0.46041  -2.72409   0.99669 
 H                    -0.58428  -1.43001   2.22046 
 H                    -4.04368  -1.49486  -1.78213 
 H                    -4.79113  -1.38325  -0.17458 
 H                     0.58922  -1.72829  -1.43656 
 H                     1.50909  -0.30865   2.57913 
 H                     2.81052  -0.837    -2.17619 
 H                    -0.18563   1.19362   1.02313 
 

 GradGradGradGradGradGradGradGradGradGradGradGradGradGradGradGradGradGrad
 Berny optimization.
 Initialization pass.
                           ----------------------------
                           !    Initial Parameters    !
                           ! (Angstroms and Degrees)  !
 --------------------------                            --------------------------
 ! Name  Definition              Value          Derivative Info.                !
 --------------------------------------------------------------------------------
 ! R1    R(1,15)                 1.7018         estimate D2E/DX2                !
 ! R2    R(2,9)                  1.8197         estimate D2E/DX2                !
 ! R3    R(2,10)                 1.7621         estimate D2E/DX2                !
 ! R4    R(3,7)                  1.5035         estimate D2E/DX2                !
 ! R5    R(3,8)                  1.4944         estimate D2E/DX2                !
 ! R6    R(3,10)                 1.3479         estimate D2E/DX2                !
 ! R7    R(4,10)                 1.3702         estimate D2E/DX2                !
 ! R8    R(4,16)                 1.3867         estimate D2E/DX2                !
 ! R9    R(4,26)                 1.0336         estimate D2E/DX2                !
 ! R10   R(5,13)                 1.3527         estimate D2E/DX2                !
 ! R11   R(5,15)                 1.3606         estimate D2E/DX2                !
 ! R12   R(6,16)                 1.1556         estimate D2E/DX2                !
 ! R13   R(7,9)                  1.5251         estimate D2E/DX2                !
 ! R14   R(7,17)                 1.1197         estimate D2E/DX2                !
 ! R15   R(7,18)                 1.1192         estimate D2E/DX2                !
 ! R16   R(8,11)                 1.4984         estimate D2E/DX2                !
 ! R17   R(8,19)                 1.1218         estimate D2E/DX2                !
 ! R18   R(8,20)                 1.1209         estimate D2E/DX2                !
 ! R19   R(9,21)                 1.1139         estimate D2E/DX2                !
 ! R20   R(9,22)                 1.1142         estimate D2E/DX2                !
 ! R21   R(11,12)                1.4078         estimate D2E/DX2                !
 ! R22   R(11,13)                1.4115         estimate D2E/DX2                !
 ! R23   R(12,14)                1.3911         estimate D2E/DX2                !
 ! R24   R(12,23)                1.0919         estimate D2E/DX2                !
 ! R25   R(13,24)                1.101          estimate D2E/DX2                !
 ! R26   R(14,15)                1.4115         estimate D2E/DX2                !
 ! R27   R(14,25)                1.0938         estimate D2E/DX2                !
 ! A1    A(9,2,10)              93.2351         estimate D2E/DX2                !
 ! A2    A(7,3,8)              118.5954         estimate D2E/DX2                !
 ! A3    A(7,3,10)             115.1082         estimate D2E/DX2                !
 ! A4    A(8,3,10)             126.2963         estimate D2E/DX2                !
 ! A5    A(10,4,16)            119.6094         estimate D2E/DX2                !
 ! A6    A(10,4,26)            122.8221         estimate D2E/DX2                !
 ! A7    A(16,4,26)            117.4637         estimate D2E/DX2                !
 ! A8    A(13,5,15)            118.1192         estimate D2E/DX2                !
 ! A9    A(3,7,9)              109.8442         estimate D2E/DX2                !
 ! A10   A(3,7,17)             108.5906         estimate D2E/DX2                !
 ! A11   A(3,7,18)             108.6136         estimate D2E/DX2                !
 ! A12   A(9,7,17)             111.1564         estimate D2E/DX2                !
 ! A13   A(9,7,18)             111.3818         estimate D2E/DX2                !
 ! A14   A(17,7,18)            107.154          estimate D2E/DX2                !
 ! A15   A(3,8,11)             112.7487         estimate D2E/DX2                !
 ! A16   A(3,8,19)             108.6079         estimate D2E/DX2                !
 ! A17   A(3,8,20)             108.3815         estimate D2E/DX2                !
 ! A18   A(11,8,19)            109.5271         estimate D2E/DX2                !
 ! A19   A(11,8,20)            111.7635         estimate D2E/DX2                !
 ! A20   A(19,8,20)            105.515          estimate D2E/DX2                !
 ! A21   A(2,9,7)              107.8215         estimate D2E/DX2                !
 ! A22   A(2,9,21)             109.463          estimate D2E/DX2                !
 ! A23   A(2,9,22)             109.4842         estimate D2E/DX2                !
 ! A24   A(7,9,21)             112.119          estimate D2E/DX2                !
 ! A25   A(7,9,22)             112.1846         estimate D2E/DX2                !
 ! A26   A(21,9,22)            105.7372         estimate D2E/DX2                !
 ! A27   A(2,10,3)             113.7903         estimate D2E/DX2                !
 ! A28   A(2,10,4)             119.8395         estimate D2E/DX2                !
 ! A29   A(3,10,4)             126.3642         estimate D2E/DX2                !
 ! A30   A(8,11,12)            121.5428         estimate D2E/DX2                !
 ! A31   A(8,11,13)            120.0598         estimate D2E/DX2                !
 ! A32   A(12,11,13)           118.2891         estimate D2E/DX2                !
 ! A33   A(11,12,14)           119.7243         estimate D2E/DX2                !
 ! A34   A(11,12,23)           120.4526         estimate D2E/DX2                !
 ! A35   A(14,12,23)           119.8225         estimate D2E/DX2                !
 ! A36   A(5,13,11)            122.6586         estimate D2E/DX2                !
 ! A37   A(5,13,24)            115.2745         estimate D2E/DX2                !
 ! A38   A(11,13,24)           122.0625         estimate D2E/DX2                !
 ! A39   A(12,14,15)           118.1796         estimate D2E/DX2                !
 ! A40   A(12,14,25)           121.4614         estimate D2E/DX2                !
 ! A41   A(15,14,25)           120.3548         estimate D2E/DX2                !
 ! A42   A(1,15,5)             117.2809         estimate D2E/DX2                !
 ! A43   A(1,15,14)            119.7232         estimate D2E/DX2                !
 ! A44   A(5,15,14)            122.9958         estimate D2E/DX2                !
 ! A45   L(4,16,6,2,-1)        181.4272         estimate D2E/DX2                !
 ! A46   L(4,16,6,2,-2)        179.6469         estimate D2E/DX2                !
 ! D1    D(10,2,9,7)            -3.6106         estimate D2E/DX2                !
 ! D2    D(10,2,9,21)         -125.8249         estimate D2E/DX2                !
 ! D3    D(10,2,9,22)          118.6967         estimate D2E/DX2                !
 ! D4    D(9,2,10,3)             1.5798         estimate D2E/DX2                !
 ! D5    D(9,2,10,4)          -177.5874         estimate D2E/DX2                !
 ! D6    D(8,3,7,9)            175.9655         estimate D2E/DX2                !
 ! D7    D(8,3,7,17)            54.2157         estimate D2E/DX2                !
 ! D8    D(8,3,7,18)           -61.9926         estimate D2E/DX2                !
 ! D9    D(10,3,7,9)            -3.8784         estimate D2E/DX2                !
 ! D10   D(10,3,7,17)         -125.6281         estimate D2E/DX2                !
 ! D11   D(10,3,7,18)          118.1635         estimate D2E/DX2                !
 ! D12   D(7,3,8,11)           130.1593         estimate D2E/DX2                !
 ! D13   D(7,3,8,19)             8.5841         estimate D2E/DX2                !
 ! D14   D(7,3,8,20)          -105.577          estimate D2E/DX2                !
 ! D15   D(10,3,8,11)          -50.0161         estimate D2E/DX2                !
 ! D16   D(10,3,8,19)         -171.5913         estimate D2E/DX2                !
 ! D17   D(10,3,8,20)           74.2476         estimate D2E/DX2                !
 ! D18   D(7,3,10,2)             1.103          estimate D2E/DX2                !
 ! D19   D(7,3,10,4)          -179.7941         estimate D2E/DX2                !
 ! D20   D(8,3,10,2)          -178.7269         estimate D2E/DX2                !
 ! D21   D(8,3,10,4)             0.376          estimate D2E/DX2                !
 ! D22   D(16,4,10,2)            0.5682         estimate D2E/DX2                !
 ! D23   D(16,4,10,3)         -178.4855         estimate D2E/DX2                !
 ! D24   D(26,4,10,2)         -175.6133         estimate D2E/DX2                !
 ! D25   D(26,4,10,3)            5.3331         estimate D2E/DX2                !
 ! D26   D(15,5,13,11)          -1.532          estimate D2E/DX2                !
 ! D27   D(15,5,13,24)         177.7083         estimate D2E/DX2                !
 ! D28   D(13,5,15,1)         -179.9072         estimate D2E/DX2                !
 ! D29   D(13,5,15,14)           0.1792         estimate D2E/DX2                !
 ! D30   D(3,7,9,2)              4.6815         estimate D2E/DX2                !
 ! D31   D(3,7,9,21)           125.2428         estimate D2E/DX2                !
 ! D32   D(3,7,9,22)          -115.9465         estimate D2E/DX2                !
 ! D33   D(17,7,9,2)           124.8861         estimate D2E/DX2                !
 ! D34   D(17,7,9,21)         -114.5526         estimate D2E/DX2                !
 ! D35   D(17,7,9,22)            4.2582         estimate D2E/DX2                !
 ! D36   D(18,7,9,2)          -115.6974         estimate D2E/DX2                !
 ! D37   D(18,7,9,21)            4.8639         estimate D2E/DX2                !
 ! D38   D(18,7,9,22)          123.6747         estimate D2E/DX2                !
 ! D39   D(3,8,11,12)          -60.3729         estimate D2E/DX2                !
 ! D40   D(3,8,11,13)          123.476          estimate D2E/DX2                !
 ! D41   D(19,8,11,12)          60.68           estimate D2E/DX2                !
 ! D42   D(19,8,11,13)        -115.471          estimate D2E/DX2                !
 ! D43   D(20,8,11,12)         177.2433         estimate D2E/DX2                !
 ! D44   D(20,8,11,13)           1.0923         estimate D2E/DX2                !
 ! D45   D(8,11,12,14)        -177.8959         estimate D2E/DX2                !
 ! D46   D(8,11,12,23)           1.8098         estimate D2E/DX2                !
 ! D47   D(13,11,12,14)         -1.6789         estimate D2E/DX2                !
 ! D48   D(13,11,12,23)        178.0268         estimate D2E/DX2                !
 ! D49   D(8,11,13,5)          178.5679         estimate D2E/DX2                !
 ! D50   D(8,11,13,24)          -0.6215         estimate D2E/DX2                !
 ! D51   D(12,11,13,5)           2.2929         estimate D2E/DX2                !
 ! D52   D(12,11,13,24)       -176.8965         estimate D2E/DX2                !
 ! D53   D(11,12,14,15)          0.4342         estimate D2E/DX2                !
 ! D54   D(11,12,14,25)        179.6898         estimate D2E/DX2                !
 ! D55   D(23,12,14,15)       -179.2734         estimate D2E/DX2                !
 ! D56   D(23,12,14,25)         -0.0178         estimate D2E/DX2                !
 ! D57   D(12,14,15,1)        -179.5582         estimate D2E/DX2                !
 ! D58   D(12,14,15,5)           0.3535         estimate D2E/DX2                !
 ! D59   D(25,14,15,1)           1.1777         estimate D2E/DX2                !
 ! D60   D(25,14,15,5)        -178.9107         estimate D2E/DX2                !
 --------------------------------------------------------------------------------
 Trust Radius=3.00D-01 FncErr=1.00D-07 GrdErr=1.00D-06 EigMax=2.50D+02 EigMin=1.00D-04
 Number of steps in this run=    150 maximum allowed number of steps=    156.
 GradGradGradGradGradGradGradGradGradGradGradGradGradGradGradGradGradGrad

                          Input orientation:                          
 ---------------------------------------------------------------------
 Center     Atomic      Atomic             Coordinates (Angstroms)
 Number     Number       Type             X           Y           Z
 ---------------------------------------------------------------------
      1         17           0        4.800370    0.547168   -0.660968
      2         16           0       -3.412949    0.560735   -0.650896
      3          7           0       -1.641895   -1.044465    0.409683
      4          7           0       -1.113079    1.316558    0.583675
      5          7           0        2.931203    0.071753    1.114013
      6          7           0       -1.851841    3.702691    0.112091
      7          6           0       -2.675308   -1.993078   -0.131284
      8          6           0       -0.455479   -1.609247    1.121507
      9          6           0       -3.839052   -1.206826   -0.725754
     10          6           0       -1.896715    0.261745    0.195607
     11          6           0        0.841574   -1.054434    0.616348
     12          6           0        1.239083   -1.215554   -0.724470
     13          6           0        1.734974   -0.422126    1.507539
     14          6           0        2.471156   -0.723133   -1.142575
     15          6           0        3.290143   -0.079992   -0.189633
     16          6           0       -1.527360    2.612605    0.316403
     17          1           0       -3.020090   -2.657915    0.701089
     18          1           0       -2.191546   -2.648693   -0.898608
     19          1           0       -0.460413   -2.724090    0.996689
     20          1           0       -0.584275   -1.430009    2.220460
     21          1           0       -4.043679   -1.494863   -1.782134
     22          1           0       -4.791129   -1.383250   -0.174581
     23          1           0        0.589220   -1.728289   -1.436559
     24          1           0        1.509088   -0.308649    2.579132
     25          1           0        2.810518   -0.836995   -2.176192
     26          1           0       -0.185627    1.193619    1.023133
 ---------------------------------------------------------------------
                    Distance matrix (angstroms):
                    1          2          3          4          5
     1  Cl   0.000000
     2  S    8.213336   0.000000
     3  N    6.721783   2.614981   0.000000
     4  N    6.091796   2.717505   2.425768   0.000000
     5  N    2.621138   6.603202   4.759753   4.264624   0.000000
     6  N    7.403165   3.590417   4.761106   2.542005   6.088109
     7  C    7.913228   2.708518   1.503481   3.728997   6.103053
     8  C    5.954099   4.073925   1.494408   3.046643   3.780930
     9  C    8.815912   1.819736   2.478523   3.938655   7.131329
    10  C    6.757672   1.762081   1.347942   1.370151   4.918166
    11  C    4.457435   4.723944   2.492073   3.073002   2.425390
    12  C    3.974165   4.980162   3.100904   3.695335   2.810774
    13  C    3.877964   5.667977   3.604974   3.462362   1.352680
    14  C    2.696451   6.042579   4.407941   4.470684   2.436324
    15  C    1.701844   6.749425   5.061066   4.683665   1.360646
    16  C    6.727663   2.949794   3.660052   1.386651   5.193351
    17  H    8.560803   3.513105   2.141859   4.409865   6.560448
    18  H    7.691352   3.442908   2.141796   4.368463   6.139546
    19  H    6.412862   4.714030   2.135794   4.113805   4.396995
    20  H    6.419210   4.495458   2.132163   3.240730   3.979711
    21  H    9.145715   2.429610   3.282604   4.699953   7.713037
    22  H    9.795914   2.430089   3.220841   4.625145   7.963160
    23  H    4.849024   4.676992   2.975584   4.031161   3.902621
    24  H    4.697149   5.951080   3.895719   3.674086   2.076943
    25  H    2.858552   6.558332   5.153035   5.258257   3.415529
    26  H    5.302288   3.690328   2.739718   1.033637   3.313830
                    6          7          8          9         10
     6  N    0.000000
     7  C    5.760131   0.000000
     8  C    5.584392   2.577684   0.000000
     9  C    5.362308   1.525086   3.875936   0.000000
    10  C    3.442252   2.407757   2.536743   2.603513   0.000000
    11  C    5.489900   3.715974   1.498449   4.871624   3.067177
    12  C    5.868797   4.034708   2.536566   5.078143   3.586389
    13  C    5.641510   4.960264   2.521183   6.055833   3.921481
    14  C    6.312718   5.396440   3.804794   6.342430   4.673223
    15  C    6.390597   6.264975   4.252928   7.237583   5.212359
    16  C    1.155560   4.767654   4.429577   4.584546   2.382763
    17  H    6.493769   1.119700   2.802443   2.193682   3.168895
    18  H    6.440263   1.119215   2.859238   2.196164   3.123281
    19  H    6.634915   2.590842   1.121819   4.084618   3.408798
    20  H    5.691797   3.196899   1.120898   4.395857   2.946958
    21  H    5.950362   2.201355   4.617293   1.113901   3.406844
    22  H    5.881190   2.202377   4.530870   1.114167   3.349728
    23  H    6.152450   3.525762   2.765731   4.515170   3.578278
    24  H    5.785584   5.262397   2.770514   6.350716   4.195955
    25  H    6.898013   5.967618   4.705096   6.815961   5.384301
    26  H    3.146698   4.205500   2.817544   4.708318   2.116840
                   11         12         13         14         15
    11  C    0.000000
    12  C    1.407752   0.000000
    13  C    1.411453   2.420186   0.000000
    14  C    2.420559   1.391148   2.766889   0.000000
    15  C    2.755836   2.404662   2.327230   1.411548   0.000000
    16  C    4.375956   4.836468   4.612073   5.407762   5.542065
    17  H    4.182198   4.717327   5.315990   6.107066   6.874454
    18  H    3.746541   3.722019   5.115145   5.050554   6.095062
    19  H    2.151181   2.850676   3.221759   4.144198   4.739756
    20  H    2.178825   3.470337   2.627356   4.598406   4.758383
    21  H    5.460072   5.394835   6.735395   6.591485   7.636941
    22  H    5.697458   6.057554   6.807592   7.356191   8.185699
    23  H    2.175360   1.091920   3.418556   2.153706   3.400984
    24  H    2.203246   3.436447   1.101005   3.866326   3.300076
    25  H    3.423784   2.172605   3.859894   1.093844   2.179337
    26  H    2.504867   3.299701   2.556167   3.927178   3.895364
                   16         17         18         19         20
    16  C    0.000000
    17  H    5.491321   0.000000
    18  H    5.440464   1.801555   0.000000
    19  H    5.484658   2.577539   2.568006   0.000000
    20  H    4.567009   3.122409   3.714444   1.785386   0.000000
    21  H    5.254238   2.926913   2.354217   4.698154   5.290788
    22  H    5.182674   2.351201   2.980502   4.682395   4.841077
    23  H    5.137718   4.296611   2.978119   2.830909   3.852253
    24  H    4.782644   5.436869   5.591527   3.495342   2.401721
    25  H    6.077002   6.752073   5.471299   4.932270   5.586308
    26  H    2.076833   4.792933   4.741325   3.927423   2.911346
                   21         22         23         24         25
    21  H    0.000000
    22  H    1.776335   0.000000
    23  H    4.651630   5.537129   0.000000
    24  H    7.159676   6.959198   4.357443   0.000000
    25  H    6.896962   7.879713   2.505120   4.958425   0.000000
    26  H    5.475584   5.411601   3.897181   2.747727   4.830731
                   26
    26  H    0.000000
 Stoichiometry    C10H10ClN4S(1+)
 Framework group  C1[X(C10H10ClN4S)]
 Deg. of freedom    72
 Full point group                 C1      NOp   1
 Largest Abelian subgroup         C1      NOp   1
 Largest concise Abelian subgroup C1      NOp   1
                         Standard orientation:                         
 ---------------------------------------------------------------------
 Center     Atomic      Atomic             Coordinates (Angstroms)
 Number     Number       Type             X           Y           Z
 ---------------------------------------------------------------------
      1         17           0        4.800370    0.547168   -0.660968
      2         16           0       -3.412949    0.560735   -0.650896
      3          7           0       -1.641895   -1.044465    0.409683
      4          7           0       -1.113079    1.316558    0.583675
      5          7           0        2.931203    0.071753    1.114013
      6          7           0       -1.851841    3.702691    0.112091
      7          6           0       -2.675308   -1.993078   -0.131284
      8          6           0       -0.455479   -1.609247    1.121507
      9          6           0       -3.839052   -1.206826   -0.725754
     10          6           0       -1.896715    0.261745    0.195607
     11          6           0        0.841574   -1.054434    0.616348
     12          6           0        1.239083   -1.215554   -0.724470
     13          6           0        1.734974   -0.422126    1.507539
     14          6           0        2.471156   -0.723133   -1.142575
     15          6           0        3.290143   -0.079992   -0.189633
     16          6           0       -1.527360    2.612605    0.316403
     17          1           0       -3.020090   -2.657915    0.701089
     18          1           0       -2.191546   -2.648693   -0.898608
     19          1           0       -0.460413   -2.724090    0.996689
     20          1           0       -0.584275   -1.430009    2.220460
     21          1           0       -4.043679   -1.494863   -1.782134
     22          1           0       -4.791129   -1.383250   -0.174581
     23          1           0        0.589220   -1.728289   -1.436559
     24          1           0        1.509088   -0.308649    2.579132
     25          1           0        2.810518   -0.836995   -2.176192
     26          1           0       -0.185627    1.193619    1.023133
 ---------------------------------------------------------------------
 Rotational constants (GHZ):           0.7671841           0.2271713           0.1965502
 Standard basis: 6-31++G(d,p) (6D, 7F)
 There are   372 symmetry adapted cartesian basis functions of A   symmetry.
 There are   372 symmetry adapted basis functions of A   symmetry.
   372 basis functions,   640 primitive gaussians,   372 cartesian basis functions
    65 alpha electrons       65 beta electrons
       nuclear repulsion energy      1247.3706256391 Hartrees.
 NAtoms=   26 NActive=   26 NUniq=   26 SFac= 1.00D+00 NAtFMM=   60 NAOKFM=F Big=F
 Integral buffers will be    131072 words long.
 Raffenetti 2 integral format.
 Two-electron integral symmetry is turned on.
 Nuclear repulsion after empirical dispersion term =     1247.3442958763 Hartrees.
 One-electron integrals computed using PRISM.
 NBasis=   372 RedAO= T EigKep=  1.84D-06  NBF=   372
 NBsUse=   372 1.00D-06 EigRej= -1.00D+00 NBFU=   372
 ExpMin= 3.60D-02 ExpMax= 2.52D+04 ExpMxC= 3.78D+03 IAcc=3 IRadAn=         5 AccDes= 0.00D+00
 Harris functional with IExCor=  402 and IRadAn=       5 diagonalized for initial guess.
 HarFok:  IExCor=  402 AccDes= 0.00D+00 IRadAn=         5 IDoV= 1 UseB2=F ITyADJ=14
 ICtDFT=  3500011 ScaDFX=  1.000000  1.000000  1.000000  1.000000
 FoFCou: FMM=F IPFlag=           0 FMFlag=      100000 FMFlg1=           0
         NFxFlg=           0 DoJE=T BraDBF=F KetDBF=T FulRan=T
         wScrn=  0.000000 ICntrl=       500 IOpCl=  0 I1Cent=   200000004 NGrid=           0
         NMat0=    1 NMatS0=      1 NMatT0=    0 NMatD0=    1 NMtDS0=    0 NMtDT0=    0
 Petite list used in FoFCou.
 Requested convergence on RMS density matrix=1.00D-08 within  32 cycles.
 Requested convergence on MAX density matrix=1.00D-06.
 Requested convergence on             energy=1.00D-06.
 No special actions if energy rises.
 SCF Done:  E(RB3LYP) =  -1464.24373843     A.U. after   16 cycles
            NFock= 16  Conv=0.54D-08     -V/T= 2.0063
 QCSCF skips out because SCF is already converged.

 **********************************************************************

            Population analysis using the SCF density.

 **********************************************************************

 Orbital symmetries:
       Occupied  (A) (A) (A) (A) (A) (A) (A) (A) (A) (A) (A) (A)
                 (A) (A) (A) (A) (A) (A) (A) (A) (A) (A) (A) (A)
                 (A) (A) (A) (A) (A) (A) (A) (A) (A) (A) (A) (A)
                 (A) (A) (A) (A) (A) (A) (A) (A) (A) (A) (A) (A)
                 (A) (A) (A) (A) (A) (A) (A) (A) (A) (A) (A) (A)
                 (A) (A) (A) (A) (A)
       Virtual   (A) (A) (A) (A) (A) (A) (A) (A) (A) (A) (A) (A)
                 (A) (A) (A) (A) (A) (A) (A) (A) (A) (A) (A) (A)
                 (A) (A) (A) (A) (A) (A) (A) (A) (A) (A) (A) (A)
                 (A) (A) (A) (A) (A) (A) (A) (A) (A) (A) (A) (A)
                 (A) (A) (A) (A) (A) (A) (A) (A) (A) (A) (A) (A)
                 (A) (A) (A) (A) (A) (A) (A) (A) (A) (A) (A) (A)
                 (A) (A) (A) (A) (A) (A) (A) (A) (A) (A) (A) (A)
                 (A) (A) (A) (A) (A) (A) (A) (A) (A) (A) (A) (A)
                 (A) (A) (A) (A) (A) (A) (A) (A) (A) (A) (A) (A)
                 (A) (A) (A) (A) (A) (A) (A) (A) (A) (A) (A) (A)
                 (A) (A) (A) (A) (A) (A) (A) (A) (A) (A) (A) (A)
                 (A) (A) (A) (A) (A) (A) (A) (A) (A) (A) (A) (A)
                 (A) (A) (A) (A) (A) (A) (A) (A) (A) (A) (A) (A)
                 (A) (A) (A) (A) (A) (A) (A) (A) (A) (A) (A) (A)
                 (A) (A) (A) (A) (A) (A) (A) (A) (A) (A) (A) (A)
                 (A) (A) (A) (A) (A) (A) (A) (A) (A) (A) (A) (A)
                 (A) (A) (A) (A) (A) (A) (A) (A) (A) (A) (A) (A)
                 (A) (A) (A) (A) (A) (A) (A) (A) (A) (A) (A) (A)
                 (A) (A) (A) (A) (A) (A) (A) (A) (A) (A) (A) (A)
                 (A) (A) (A) (A) (A) (A) (A) (A) (A) (A) (A) (A)
                 (A) (A) (A) (A) (A) (A) (A) (A) (A) (A) (A) (A)
                 (A) (A) (A) (A) (A) (A) (A) (A) (A) (A) (A) (A)
                 (A) (A) (A) (A) (A) (A) (A) (A) (A) (A) (A) (A)
                 (A) (A) (A) (A) (A) (A) (A) (A) (A) (A) (A) (A)
                 (A) (A) (A) (A) (A) (A) (A) (A) (A) (A) (A) (A)
                 (A) (A) (A) (A) (A) (A) (A)
 The electronic state is 1-A.
 Alpha  occ. eigenvalues -- -101.67145 -89.09802 -14.62204 -14.60047 -14.50783
 Alpha  occ. eigenvalues --  -14.48571 -10.53147 -10.43274 -10.42667 -10.42445
 Alpha  occ. eigenvalues --  -10.42282 -10.41110 -10.38476 -10.36953 -10.36660
 Alpha  occ. eigenvalues --  -10.35405  -9.58715  -8.15715  -7.35141  -7.34170
 Alpha  occ. eigenvalues --   -7.34055  -6.12268  -6.11804  -6.11213  -1.21304
 Alpha  occ. eigenvalues --   -1.15088  -1.09608  -1.06642  -1.01742  -0.99163
 Alpha  occ. eigenvalues --   -0.96563  -0.94872  -0.91985  -0.86334  -0.83598
 Alpha  occ. eigenvalues --   -0.82094  -0.78851  -0.77067  -0.76359  -0.71257
 Alpha  occ. eigenvalues --   -0.68717  -0.66302  -0.65309  -0.65085  -0.62585
 Alpha  occ. eigenvalues --   -0.61621  -0.60944  -0.60347  -0.58489  -0.56941
 Alpha  occ. eigenvalues --   -0.56372  -0.55522  -0.55112  -0.53511  -0.53029
 Alpha  occ. eigenvalues --   -0.52191  -0.51964  -0.50235  -0.47086  -0.45324
 Alpha  occ. eigenvalues --   -0.43700  -0.43175  -0.42714  -0.40637  -0.38951
 Alpha virt. eigenvalues --   -0.22486  -0.19365  -0.18621  -0.17840  -0.15084
 Alpha virt. eigenvalues --   -0.14274  -0.13784  -0.12199  -0.11827  -0.11122
 Alpha virt. eigenvalues --   -0.10184  -0.09456  -0.08943  -0.08447  -0.08368
 Alpha virt. eigenvalues --   -0.07593  -0.06970  -0.06878  -0.06295  -0.05856
 Alpha virt. eigenvalues --   -0.05471  -0.04826  -0.04134  -0.03662  -0.03326
 Alpha virt. eigenvalues --   -0.02710  -0.02422  -0.02208  -0.01662  -0.01237
 Alpha virt. eigenvalues --   -0.01165  -0.00218  -0.00076   0.00118   0.00278
 Alpha virt. eigenvalues --    0.00610   0.00829   0.00974   0.01694   0.01802
 Alpha virt. eigenvalues --    0.02061   0.02400   0.02602   0.03023   0.03162
 Alpha virt. eigenvalues --    0.03353   0.03905   0.03999   0.04406   0.04662
 Alpha virt. eigenvalues --    0.04867   0.05146   0.05916   0.06174   0.06416
 Alpha virt. eigenvalues --    0.06746   0.07172   0.07794   0.08193   0.08640
 Alpha virt. eigenvalues --    0.08694   0.09099   0.09345   0.09854   0.10224
 Alpha virt. eigenvalues --    0.10842   0.11464   0.11560   0.12301   0.12620
 Alpha virt. eigenvalues --    0.12782   0.13481   0.14015   0.14192   0.14802
 Alpha virt. eigenvalues --    0.14990   0.15710   0.16018   0.16225   0.16767
 Alpha virt. eigenvalues --    0.17358   0.17864   0.18217   0.19031   0.19118
 Alpha virt. eigenvalues --    0.19704   0.20088   0.20356   0.20656   0.20897
 Alpha virt. eigenvalues --    0.21571   0.21993   0.22845   0.23662   0.24463
 Alpha virt. eigenvalues --    0.24806   0.25089   0.26079   0.26548   0.27178
 Alpha virt. eigenvalues --    0.28106   0.29120   0.30092   0.31620   0.35940
 Alpha virt. eigenvalues --    0.37637   0.38765   0.39441   0.41966   0.45763
 Alpha virt. eigenvalues --    0.46870   0.48288   0.48692   0.49975   0.51356
 Alpha virt. eigenvalues --    0.52278   0.53142   0.53650   0.55309   0.55567
 Alpha virt. eigenvalues --    0.56667   0.57086   0.57899   0.58999   0.59463
 Alpha virt. eigenvalues --    0.60672   0.61212   0.62008   0.62615   0.63416
 Alpha virt. eigenvalues --    0.64542   0.65618   0.65888   0.67123   0.67897
 Alpha virt. eigenvalues --    0.70186   0.70535   0.71709   0.73747   0.74711
 Alpha virt. eigenvalues --    0.75816   0.76810   0.77154   0.77539   0.78672
 Alpha virt. eigenvalues --    0.80306   0.80391   0.80797   0.81536   0.83365
 Alpha virt. eigenvalues --    0.83996   0.84247   0.85141   0.86307   0.87664
 Alpha virt. eigenvalues --    0.88000   0.88891   0.89770   0.91976   0.92751
 Alpha virt. eigenvalues --    0.93204   0.94018   0.94514   0.96082   0.97183
 Alpha virt. eigenvalues --    0.97917   0.98407   0.98895   1.01362   1.03423
 Alpha virt. eigenvalues --    1.03761   1.04714   1.05978   1.06592   1.08363
 Alpha virt. eigenvalues --    1.10296   1.10927   1.11782   1.13008   1.15719
 Alpha virt. eigenvalues --    1.16793   1.18846   1.20025   1.22786   1.24501
 Alpha virt. eigenvalues --    1.25276   1.26712   1.28175   1.29960   1.30765
 Alpha virt. eigenvalues --    1.32781   1.33747   1.35647   1.37183   1.38287
 Alpha virt. eigenvalues --    1.40054   1.43708   1.44185   1.45529   1.48005
 Alpha virt. eigenvalues --    1.49758   1.52324   1.53339   1.58153   1.59719
 Alpha virt. eigenvalues --    1.61877   1.64911   1.65936   1.67009   1.69161
 Alpha virt. eigenvalues --    1.70566   1.71823   1.73328   1.75995   1.76204
 Alpha virt. eigenvalues --    1.77191   1.79283   1.80563   1.82256   1.82400
 Alpha virt. eigenvalues --    1.82741   1.86578   1.87334   1.88269   1.91018
 Alpha virt. eigenvalues --    1.92598   1.96086   1.97498   1.99266   1.99903
 Alpha virt. eigenvalues --    2.00594   2.01223   2.02459   2.03564   2.04624
 Alpha virt. eigenvalues --    2.07558   2.09706   2.11411   2.14315   2.14798
 Alpha virt. eigenvalues --    2.16755   2.18926   2.19304   2.20454   2.24766
 Alpha virt. eigenvalues --    2.28350   2.29598   2.31544   2.32551   2.34265
 Alpha virt. eigenvalues --    2.36050   2.38178   2.38385   2.39009   2.40890
 Alpha virt. eigenvalues --    2.43042   2.43942   2.46973   2.49465   2.50342
 Alpha virt. eigenvalues --    2.51410   2.55192   2.55799   2.56604   2.58021
 Alpha virt. eigenvalues --    2.59191   2.63054   2.64372   2.67314   2.67407
 Alpha virt. eigenvalues --    2.68857   2.70974   2.75823   2.80548   2.84466
 Alpha virt. eigenvalues --    2.87828   2.92281   2.95811   3.03751   3.04944
 Alpha virt. eigenvalues --    3.07088   3.12755   3.14781   3.17338   3.18251
 Alpha virt. eigenvalues --    3.19183   3.30881   3.31277   3.32320   3.36590
 Alpha virt. eigenvalues --    3.58768   3.78517   3.99418   4.14557   4.15524
 Alpha virt. eigenvalues --    4.16805   4.19831   4.23343   4.25662   4.29283
 Alpha virt. eigenvalues --    4.32815   4.35843   4.38504   4.45393   4.47521
 Alpha virt. eigenvalues --    4.57024   4.62951
          Condensed to atoms (all electrons):
               1          2          3          4          5          6
     1  Cl  16.828576  -0.000824   0.001954   0.000608  -0.071508   0.000069
     2  S   -0.000824  15.948013  -0.085377  -0.169983  -0.001789   0.020084
     3  N    0.001954  -0.085377   7.116244  -0.109009   0.008216   0.005581
     4  N    0.000608  -0.169983  -0.109009   6.817966   0.001373  -0.048591
     5  N   -0.071508  -0.001789   0.008216   0.001373   6.834766   0.000144
     6  N    0.000069   0.020084   0.005581  -0.048591   0.000144   7.007056
     7  C    0.000621   0.144574   0.101079  -0.085536   0.001104   0.002496
     8  C   -0.063909   0.193550  -0.040240   0.075805   0.004606  -0.006033
     9  C    0.000479  -0.054952  -0.173397   0.034393   0.000684  -0.001606
    10  C    0.001358  -0.306379   0.204084   0.231681   0.000124   0.012999
    11  C    0.092521  -0.148587  -0.058354  -0.241180   0.455180   0.006812
    12  C   -0.132112   0.002684   0.208969   0.198312  -0.288762   0.001437
    13  C    0.011273   0.007776  -0.060642  -0.098595   0.043420  -0.001025
    14  C    0.169744   0.006280  -0.054447   0.005397   0.218066  -0.002353
    15  C   -0.109015  -0.016294   0.028743   0.020179  -0.087948   0.001916
    16  C   -0.002083  -0.092957  -0.077011   0.255113  -0.008520   0.281509
    17  H   -0.000067  -0.000795  -0.030721  -0.002683  -0.000174  -0.000010
    18  H    0.000061  -0.012903  -0.032412   0.001122  -0.000026  -0.000051
    19  H   -0.001510  -0.005220  -0.049881   0.004601  -0.004541   0.000078
    20  H   -0.000699   0.012133  -0.026978   0.000127   0.006263  -0.000242
    21  H    0.000011  -0.042092   0.016716  -0.003390   0.000022   0.000150
    22  H    0.000002  -0.039445   0.009556  -0.001975   0.000005   0.000062
    23  H   -0.001644  -0.004684   0.022676   0.002059   0.003801   0.000103
    24  H   -0.002371  -0.003344  -0.004067   0.004792  -0.147049   0.000300
    25  H    0.008039  -0.000664   0.000382   0.000103   0.004159   0.000028
    26  H    0.005134  -0.022154   0.009002   0.280819  -0.001040   0.010487
               7          8          9         10         11         12
     1  Cl   0.000621  -0.063909   0.000479   0.001358   0.092521  -0.132112
     2  S    0.144574   0.193550  -0.054952  -0.306379  -0.148587   0.002684
     3  N    0.101079  -0.040240  -0.173397   0.204084  -0.058354   0.208969
     4  N   -0.085536   0.075805   0.034393   0.231681  -0.241180   0.198312
     5  N    0.001104   0.004606   0.000684   0.000124   0.455180  -0.288762
     6  N    0.002496  -0.006033  -0.001606   0.012999   0.006812   0.001437
     7  C    5.676749   0.159457  -0.215279  -0.273826   0.096096  -0.325332
     8  C    0.159457  14.210985  -0.478983  -0.390835  -8.429085   1.832696
     9  C   -0.215279  -0.478983   6.096876   0.357751   0.410815  -0.106398
    10  C   -0.273826  -0.390835   0.357751   7.272416   0.387752  -0.620698
    11  C    0.096096  -8.429085   0.410815   0.387752  21.792607  -8.858749
    12  C   -0.325332   1.832696  -0.106398  -0.620698  -8.858749  18.914759
    13  C    0.083433  -1.347973   0.045730   0.255669   0.471985  -3.671640
    14  C    0.005400   0.507411   0.005392   0.179455   1.554562  -4.471272
    15  C   -0.010891  -0.526114   0.006446  -0.041226  -1.280965   2.323742
    16  C   -0.068532   0.191710   0.067703  -0.425248  -0.295687   0.215659
    17  H    0.397446   0.089493  -0.044352   0.011855  -0.092168  -0.001184
    18  H    0.389338  -0.022100  -0.005031  -0.004077   0.024576  -0.003031
    19  H   -0.015631   0.384655   0.003121   0.030929  -0.141781   0.128169
    20  H    0.004290   0.686904  -0.024505  -0.039776  -0.273634   0.099153
    21  H   -0.063132  -0.019684   0.399084   0.010616   0.021450  -0.004977
    22  H   -0.004885   0.010604   0.345125  -0.011564  -0.007783   0.004594
    23  H   -0.033496  -0.067038   0.002861   0.010664  -0.161507   0.588180
    24  H   -0.001105  -0.208903   0.001844  -0.000339  -0.292095   0.156327
    25  H    0.002565  -0.020506   0.000688   0.000946   0.148079  -0.220645
    26  H    0.001446  -0.243013   0.008134  -0.012018   0.288884   0.008021
              13         14         15         16         17         18
     1  Cl   0.011273   0.169744  -0.109015  -0.002083  -0.000067   0.000061
     2  S    0.007776   0.006280  -0.016294  -0.092957  -0.000795  -0.012903
     3  N   -0.060642  -0.054447   0.028743  -0.077011  -0.030721  -0.032412
     4  N   -0.098595   0.005397   0.020179   0.255113  -0.002683   0.001122
     5  N    0.043420   0.218066  -0.087948  -0.008520  -0.000174  -0.000026
     6  N   -0.001025  -0.002353   0.001916   0.281509  -0.000010  -0.000051
     7  C    0.083433   0.005400  -0.010891  -0.068532   0.397446   0.389338
     8  C   -1.347973   0.507411  -0.526114   0.191710   0.089493  -0.022100
     9  C    0.045730   0.005392   0.006446   0.067703  -0.044352  -0.005031
    10  C    0.255669   0.179455  -0.041226  -0.425248   0.011855  -0.004077
    11  C    0.471985   1.554562  -1.280965  -0.295687  -0.092168   0.024576
    12  C   -3.671640  -4.471272   2.323742   0.215659  -0.001184  -0.003031
    13  C   10.198752   0.226973   0.189694  -0.011438   0.003703  -0.005911
    14  C    0.226973   9.768822  -2.319432   0.003329   0.005338   0.000219
    15  C    0.189694  -2.319432   8.127026  -0.030760  -0.002645   0.000993
    16  C   -0.011438   0.003329  -0.030760   5.695345  -0.004486   0.001167
    17  H    0.003703   0.005338  -0.002645  -0.004486   0.502076  -0.034708
    18  H   -0.005911   0.000219   0.000993   0.001167  -0.034708   0.500986
    19  H   -0.053587   0.005684   0.002604   0.006094  -0.013653  -0.002568
    20  H   -0.143145   0.007841  -0.023088   0.000079   0.006531   0.003954
    21  H   -0.000138  -0.000664  -0.000099  -0.003783  -0.000996  -0.000203
    22  H   -0.001364  -0.000573   0.000252  -0.000893   0.001408   0.003121
    23  H   -0.070613  -0.155196   0.074618   0.000683   0.000450  -0.008890
    24  H    0.662624  -0.078033   0.080463   0.003376  -0.000489  -0.000157
    25  H    0.061013   0.441696  -0.138800  -0.002800   0.000059   0.000788
    26  H   -0.107329  -0.070907   0.062416  -0.196981  -0.001258  -0.000772
              19         20         21         22         23         24
     1  Cl  -0.001510  -0.000699   0.000011   0.000002  -0.001644  -0.002371
     2  S   -0.005220   0.012133  -0.042092  -0.039445  -0.004684  -0.003344
     3  N   -0.049881  -0.026978   0.016716   0.009556   0.022676  -0.004067
     4  N    0.004601   0.000127  -0.003390  -0.001975   0.002059   0.004792
     5  N   -0.004541   0.006263   0.000022   0.000005   0.003801  -0.147049
     6  N    0.000078  -0.000242   0.000150   0.000062   0.000103   0.000300
     7  C   -0.015631   0.004290  -0.063132  -0.004885  -0.033496  -0.001105
     8  C    0.384655   0.686904  -0.019684   0.010604  -0.067038  -0.208903
     9  C    0.003121  -0.024505   0.399084   0.345125   0.002861   0.001844
    10  C    0.030929  -0.039776   0.010616  -0.011564   0.010664  -0.000339
    11  C   -0.141781  -0.273634   0.021450  -0.007783  -0.161507  -0.292095
    12  C    0.128169   0.099153  -0.004977   0.004594   0.588180   0.156327
    13  C   -0.053587  -0.143145  -0.000138  -0.001364  -0.070613   0.662624
    14  C    0.005684   0.007841  -0.000664  -0.000573  -0.155196  -0.078033
    15  C    0.002604  -0.023088  -0.000099   0.000252   0.074618   0.080463
    16  C    0.006094   0.000079  -0.003783  -0.000893   0.000683   0.003376
    17  H   -0.013653   0.006531  -0.000996   0.001408   0.000450  -0.000489
    18  H   -0.002568   0.003954  -0.000203   0.003121  -0.008890  -0.000157
    19  H    0.566012  -0.051511   0.000723   0.000712   0.005026   0.004568
    20  H   -0.051511   0.549333  -0.000555   0.001197   0.000058  -0.013977
    21  H    0.000723  -0.000555   0.464314  -0.016019   0.000256   0.000013
    22  H    0.000712   0.001197  -0.016019   0.458529  -0.000045   0.000022
    23  H    0.005026   0.000058   0.000256  -0.000045   0.665098   0.000103
    24  H    0.004568  -0.013977   0.000013   0.000022   0.000103   0.687666
    25  H   -0.001615  -0.000183  -0.000023  -0.000007  -0.028862   0.000379
    26  H   -0.003371  -0.004229  -0.000152  -0.000595   0.010142  -0.001713
              25         26
     1  Cl   0.008039   0.005134
     2  S   -0.000664  -0.022154
     3  N    0.000382   0.009002
     4  N    0.000103   0.280819
     5  N    0.004159  -0.001040
     6  N    0.000028   0.010487
     7  C    0.002565   0.001446
     8  C   -0.020506  -0.243013
     9  C    0.000688   0.008134
    10  C    0.000946  -0.012018
    11  C    0.148079   0.288884
    12  C   -0.220645   0.008021
    13  C    0.061013  -0.107329
    14  C    0.441696  -0.070907
    15  C   -0.138800   0.062416
    16  C   -0.002800  -0.196981
    17  H    0.000059  -0.001258
    18  H    0.000788  -0.000772
    19  H   -0.001615  -0.003371
    20  H   -0.000183  -0.004229
    21  H   -0.000023  -0.000152
    22  H   -0.000007  -0.000595
    23  H   -0.028862   0.010142
    24  H    0.000379  -0.001713
    25  H    0.554991   0.000428
    26  H    0.000428   0.472581
 Mulliken charges:
               1
     1  Cl   0.265292
     2  S    0.673349
     3  N    0.069334
     4  N   -0.173510
     5  N    0.029426
     6  N   -0.291397
     7  C    0.031550
     8  C   -0.483460
     9  C   -0.682623
    10  C   -0.842311
    11  C    0.530255
    12  C    0.022100
    13  C   -0.688644
    14  C    0.041270
    15  C   -0.331815
    16  C    0.499409
    17  H    0.212032
    18  H    0.206516
    19  H    0.201895
    20  H    0.224658
    21  H    0.242552
    22  H    0.249959
    23  H    0.145198
    24  H    0.151165
    25  H    0.189763
    26  H    0.508037
 Sum of Mulliken charges =   1.00000
 Mulliken charges with hydrogens summed into heavy atoms:
               1
     1  Cl   0.265292
     2  S    0.673349
     3  N    0.069334
     4  N    0.334527
     5  N    0.029426
     6  N   -0.291397
     7  C    0.450098
     8  C   -0.056907
     9  C   -0.190112
    10  C   -0.842311
    11  C    0.530255
    12  C    0.167297
    13  C   -0.537479
    14  C    0.231033
    15  C   -0.331815
    16  C    0.499409
 Electronic spatial extent (au):  <R**2>=           5248.6832
 Charge=              1.0000 electrons
 Dipole moment (field-independent basis, Debye):
    X=             -7.8467    Y=             -7.2079    Z=             -0.1828  Tot=             10.6563
 Quadrupole moment (field-independent basis, Debye-Ang):
   XX=            -73.7293   YY=           -100.6317   ZZ=            -94.8433
   XY=             14.9310   XZ=             -1.9652   YZ=              2.0145
 Traceless Quadrupole moment (field-independent basis, Debye-Ang):
   XX=             16.0054   YY=            -10.8969   ZZ=             -5.1085
   XY=             14.9310   XZ=             -1.9652   YZ=              2.0145
 Octapole moment (field-independent basis, Debye-Ang**2):
  XXX=           -113.7603  YYY=            -73.8300  ZZZ=             -0.1757  XYY=             -3.5732
  XXY=            -54.1624  XXZ=            -49.7705  XZZ=             -4.2333  YZZ=            -12.3938
  YYZ=              1.6409  XYZ=             -4.5232
 Hexadecapole moment (field-independent basis, Debye-Ang**3):
 XXXX=          -4374.4736 YYYY=          -1552.6916 ZZZZ=           -480.6415 XXXY=            222.1616
 XXXZ=            -14.4204 YYYX=            187.7221 YYYZ=             -0.2328 ZZZX=            -11.8265
 ZZZY=              5.5707 XXYY=          -1037.9180 XXZZ=           -888.9712 YYZZ=           -303.0816
 XXYZ=              5.8717 YYXZ=             -2.5238 ZZXY=             12.9348
 N-N= 1.247344295876D+03 E-N=-5.918478883020D+03  KE= 1.455140637698D+03
 Merz-Kollman atomic radii used.

 **********************************************************************

            Electrostatic Properties Using The SCF Density

 **********************************************************************

       Atomic Center    1 is at   4.800370  0.547168 -0.660968
       Atomic Center    2 is at  -3.412949  0.560735 -0.650896
       Atomic Center    3 is at  -1.641895 -1.044465  0.409683
       Atomic Center    4 is at  -1.113079  1.316558  0.583675
       Atomic Center    5 is at   2.931203  0.071753  1.114013
       Atomic Center    6 is at  -1.851841  3.702691  0.112091
       Atomic Center    7 is at  -2.675308 -1.993078 -0.131284
       Atomic Center    8 is at  -0.455479 -1.609247  1.121507
       Atomic Center    9 is at  -3.839052 -1.206826 -0.725754
       Atomic Center   10 is at  -1.896715  0.261745  0.195607
       Atomic Center   11 is at   0.841574 -1.054434  0.616348
       Atomic Center   12 is at   1.239083 -1.215554 -0.724470
       Atomic Center   13 is at   1.734974 -0.422126  1.507539
       Atomic Center   14 is at   2.471156 -0.723133 -1.142575
       Atomic Center   15 is at   3.290143 -0.079992 -0.189633
       Atomic Center   16 is at  -1.527360  2.612605  0.316403
       Atomic Center   17 is at  -3.020090 -2.657915  0.701089
       Atomic Center   18 is at  -2.191546 -2.648693 -0.898608
       Atomic Center   19 is at  -0.460413 -2.724090  0.996689
       Atomic Center   20 is at  -0.584275 -1.430009  2.220460
       Atomic Center   21 is at  -4.043679 -1.494863 -1.782134
       Atomic Center   22 is at  -4.791129 -1.383250 -0.174581
       Atomic Center   23 is at   0.589220 -1.728289 -1.436559
       Atomic Center   24 is at   1.509088 -0.308649  2.579132
       Atomic Center   25 is at   2.810518 -0.836995 -2.176192
       Atomic Center   26 is at  -0.185627  1.193619  1.023133
    1350 points will be used for fitting atomic charges
 Fitting point charges to electrostatic potential
 The dipole moment will be constrained to the correct value
 Charges from ESP fit, RMS=   0.00241 RRMS=   0.02180:
 ESP charges:
               1
     1  Cl  -0.024704
     2  S    0.053609
     3  N    0.320140
     4  N   -0.196436
     5  N   -0.631316
     6  N   -0.347777
     7  C   -0.484384
     8  C   -0.410037
     9  C    0.208575
    10  C   -0.046861
    11  C   -0.205275
    12  C    0.136897
    13  C    0.536920
    14  C   -0.396103
    15  C    0.478081
    16  C    0.442371
    17  H    0.204302
    18  H    0.202151
    19  H    0.215064
    20  H    0.185089
    21  H    0.083267
    22  H    0.083484
    23  H    0.106264
    24  H    0.013063
    25  H    0.191313
    26  H    0.282305
 Sum of ESP charges =   1.00000
 ESP charges with hydrogens summed into heavy atoms:
               1
     1  Cl  -0.024704
     2  S    0.053609
     3  N    0.320140
     4  N    0.085869
     5  N   -0.631316
     6  N   -0.347777
     7  C   -0.077931
     8  C   -0.009885
     9  C    0.375326
    10  C   -0.046861
    11  C   -0.205275
    12  C    0.243162
    13  C    0.549982
    14  C   -0.204790
    15  C    0.478081
    16  C    0.442371
 Charge=   1.00000 Dipole=    -7.8467    -7.2079    -0.1828 Tot=    10.6563
 -----------------------------------------------------------------

              Electrostatic Properties (Atomic Units)

 -----------------------------------------------------------------
    Center     Electric         -------- Electric Field --------
               Potential          X             Y             Z
 -----------------------------------------------------------------
    1 Atom    -64.253238
    2 Atom    -58.970567
    3 Atom    -18.079867
    4 Atom    -18.053728
    5 Atom    -18.208293
    6 Atom    -18.203543
    7 Atom    -14.491420
    8 Atom    -14.499447
    9 Atom    -14.514117
   10 Atom    -14.394329
   11 Atom    -14.559628
   12 Atom    -14.563982
   13 Atom    -14.544889
   14 Atom    -14.575940
   15 Atom    -14.503571
   16 Atom    -14.510294
   17 Atom     -0.917588
   18 Atom     -0.918630
   19 Atom     -0.914734
   20 Atom     -0.920432
   21 Atom     -0.921115
   22 Atom     -0.924261
   23 Atom     -0.939780
   24 Atom     -0.949246
   25 Atom     -0.955107
   26 Atom     -0.778896
 -----------------------------------------------------------------
 Calling FoFJK, ICntrl=      2127 FMM=F ISym2X=0 I1Cent= 0 IOpClX= 0 NMat=1 NMatS=1 NMatT=0.
 ***** Axes restored to original set *****
 -------------------------------------------------------------------
 Center     Atomic                   Forces (Hartrees/Bohr)
 Number     Number              X              Y              Z
 -------------------------------------------------------------------
      1       17           0.011990682    0.005261333   -0.002850606
      2       16           0.008320919    0.012722450    0.002323849
      3        7          -0.005103681    0.012589654   -0.004565702
      4        7          -0.007833740    0.010123135   -0.004237892
      5        7          -0.002523764   -0.006439165   -0.017384112
      6        7          -0.004870792    0.013900946   -0.003219394
      7        6           0.013085994   -0.019160929    0.007378610
      8        6          -0.005024317   -0.010283825    0.014341518
      9        6          -0.021628052   -0.010924643   -0.007782307
     10        6          -0.005634607   -0.021718529   -0.000064702
     11        6           0.010209978    0.003281004    0.006725384
     12        6           0.001039384    0.002099930    0.001036800
     13        6           0.009696779    0.003067557   -0.012197904
     14        6           0.001011205   -0.000602082   -0.002292827
     15        6          -0.025110213   -0.004827006    0.026648146
     16        6           0.015512710   -0.036419728    0.009786577
     17        1           0.006560655    0.010520850   -0.010099628
     18        1          -0.003798117    0.010287437    0.010785809
     19        1          -0.006117345    0.017309978   -0.001700979
     20        1           0.001820004   -0.000705604   -0.014522154
     21        1           0.005703637    0.005825973    0.011519942
     22        1           0.012706398    0.005056518   -0.003588330
     23        1           0.002083836    0.001814850    0.001972134
     24        1           0.000356588   -0.000925542   -0.007869519
     25        1          -0.001923355    0.000870864    0.006421366
     26        1          -0.010530785   -0.002725424   -0.006564082
 -------------------------------------------------------------------
 Cartesian Forces:  Max     0.036419728 RMS     0.010525502

 GradGradGradGradGradGradGradGradGradGradGradGradGradGradGradGradGradGrad
 Berny optimization.
 FormGI is forming the generalized inverse of G from B-inverse, IUseBI=4.
 Internal  Forces:  Max     0.029642387 RMS     0.007193358
 Search for a local minimum.
 Step number   1 out of a maximum of  150
 All quantities printed in internal units (Hartrees-Bohrs-Radians)
 Mixed Optimization -- RFO/linear search
 Second derivative matrix not updated -- first step.
 ITU=  0
     Eigenvalues ---    0.00400   0.00443   0.00786   0.00880   0.01177
     Eigenvalues ---    0.01490   0.01972   0.01979   0.02007   0.02055
     Eigenvalues ---    0.02065   0.02070   0.02087   0.02103   0.02121
     Eigenvalues ---    0.02214   0.03793   0.04184   0.04793   0.04925
     Eigenvalues ---    0.04925   0.05526   0.05943   0.06381   0.08998
     Eigenvalues ---    0.09602   0.10046   0.11057   0.11856   0.13323
     Eigenvalues ---    0.15999   0.15999   0.16000   0.16000   0.21930
     Eigenvalues ---    0.22005   0.22325   0.22455   0.23387   0.24572
     Eigenvalues ---    0.24608   0.24794   0.24943   0.24997   0.25000
     Eigenvalues ---    0.25000   0.28632   0.29638   0.31380   0.31473
     Eigenvalues ---    0.31553   0.31594   0.31644   0.32163   0.32190
     Eigenvalues ---    0.32541   0.32971   0.33571   0.34372   0.34592
     Eigenvalues ---    0.35669   0.40642   0.42232   0.42970   0.43768
     Eigenvalues ---    0.45999   0.47906   0.50948   0.51459   0.53208
     Eigenvalues ---    0.53333   1.30744
 RFO step:  Lambda=-1.88591387D-02 EMin= 3.99891626D-03
 Linear search not attempted -- first point.
 Iteration  1 RMS(Cart)=  0.10965055 RMS(Int)=  0.00241903
 Iteration  2 RMS(Cart)=  0.00444356 RMS(Int)=  0.00017610
 Iteration  3 RMS(Cart)=  0.00000975 RMS(Int)=  0.00017600
 Iteration  4 RMS(Cart)=  0.00000000 RMS(Int)=  0.00017600
 Variable       Old X    -DE/DX   Delta X   Delta X   Delta X     New X
                                 (Linear)    (Quad)   (Total)
    R1        3.21602   0.01337   0.00000   0.03560   0.03560   3.25162
    R2        3.43880   0.00638   0.00000   0.02896   0.02879   3.46759
    R3        3.32985  -0.00986   0.00000  -0.03481  -0.03453   3.29532
    R4        2.84117  -0.01515   0.00000  -0.04575  -0.04579   2.79538
    R5        2.82402  -0.00652   0.00000  -0.01871  -0.01871   2.80531
    R6        2.54724  -0.02964   0.00000  -0.05457  -0.05430   2.49294
    R7        2.58921  -0.01726   0.00000  -0.03266  -0.03266   2.55655
    R8        2.62039  -0.02549   0.00000  -0.05120  -0.05120   2.56919
    R9        1.95329  -0.01192   0.00000  -0.02701  -0.02701   1.92628
   R10        2.55619  -0.01466   0.00000  -0.02744  -0.02741   2.52878
   R11        2.57125  -0.02720   0.00000  -0.05102  -0.05104   2.52021
   R12        2.18369   0.01505   0.00000   0.01135   0.01135   2.19504
   R13        2.88199   0.00821   0.00000   0.03038   0.03008   2.91207
   R14        2.11593  -0.01577   0.00000  -0.04712  -0.04712   2.06881
   R15        2.11501  -0.01506   0.00000  -0.04492  -0.04492   2.07009
   R16        2.83166   0.00718   0.00000   0.02084   0.02084   2.85250
   R17        2.11993  -0.01699   0.00000  -0.05106  -0.05106   2.06887
   R18        2.11819  -0.01456   0.00000  -0.04364  -0.04364   2.07455
   R19        2.10497  -0.01348   0.00000  -0.03956  -0.03956   2.06541
   R20        2.10547  -0.01343   0.00000  -0.03945  -0.03945   2.06602
   R21        2.66027  -0.00584   0.00000  -0.01106  -0.01104   2.64922
   R22        2.66726  -0.00984   0.00000  -0.02178  -0.02174   2.64552
   R23        2.62889  -0.00515   0.00000  -0.00888  -0.00891   2.61998
   R24        2.06343  -0.00338   0.00000  -0.00926  -0.00926   2.05417
   R25        2.08060  -0.00783   0.00000  -0.02208  -0.02208   2.05852
   R26        2.66744  -0.00395   0.00000  -0.00856  -0.00859   2.65885
   R27        2.06707  -0.00676   0.00000  -0.01863  -0.01863   2.04844
    A1        1.62726  -0.01267   0.00000  -0.04260  -0.04242   1.58484
    A2        2.06988   0.00465   0.00000   0.02021   0.02009   2.08997
    A3        2.00902   0.00220   0.00000   0.00235   0.00256   2.01157
    A4        2.20429  -0.00685   0.00000  -0.02259  -0.02271   2.18158
    A5        2.08758   0.00786   0.00000   0.03255   0.03240   2.11997
    A6        2.14365  -0.00806   0.00000  -0.04007  -0.04023   2.10342
    A7        2.05013   0.00013   0.00000   0.00570   0.00555   2.05567
    A8        2.06157  -0.00094   0.00000  -0.01209  -0.01205   2.04952
    A9        1.91714  -0.00574   0.00000  -0.02160  -0.02196   1.89518
   A10        1.89526   0.00017   0.00000  -0.01319  -0.01297   1.88229
   A11        1.89566   0.00009   0.00000  -0.01241  -0.01210   1.88356
   A12        1.94005   0.00268   0.00000   0.01511   0.01477   1.95482
   A13        1.94398   0.00316   0.00000   0.01991   0.01979   1.96377
   A14        1.87019  -0.00031   0.00000   0.01163   0.01114   1.88133
   A15        1.96784   0.00375   0.00000   0.01296   0.01306   1.98089
   A16        1.89557  -0.00745   0.00000  -0.05123  -0.05130   1.84427
   A17        1.89161  -0.00029   0.00000  -0.00402  -0.00407   1.88754
   A18        1.91161   0.00449   0.00000   0.03607   0.03621   1.94782
   A19        1.95064  -0.00276   0.00000  -0.01207  -0.01207   1.93857
   A20        1.84159   0.00192   0.00000   0.01679   0.01645   1.85804
   A21        1.88184   0.00038   0.00000   0.01033   0.00981   1.89165
   A22        1.91049  -0.00145   0.00000  -0.02051  -0.02035   1.89014
   A23        1.91086  -0.00134   0.00000  -0.01795  -0.01775   1.89311
   A24        1.95685  -0.00029   0.00000  -0.00372  -0.00360   1.95325
   A25        1.95799   0.00000   0.00000   0.00065   0.00076   1.95875
   A26        1.84546   0.00260   0.00000   0.02973   0.02958   1.87504
   A27        1.98602   0.01580   0.00000   0.05067   0.05109   2.03711
   A28        2.09159   0.00366   0.00000   0.01781   0.01749   2.10908
   A29        2.20547  -0.01945   0.00000  -0.06818  -0.06849   2.13698
   A30        2.12132   0.00267   0.00000   0.00916   0.00901   2.13033
   A31        2.09544   0.00250   0.00000   0.00851   0.00836   2.10380
   A32        2.06453  -0.00512   0.00000  -0.01603  -0.01609   2.04844
   A33        2.08958  -0.00298   0.00000  -0.00589  -0.00589   2.08369
   A34        2.10229   0.00175   0.00000   0.00438   0.00438   2.10667
   A35        2.09130   0.00124   0.00000   0.00153   0.00153   2.09282
   A36        2.14080   0.00710   0.00000   0.02605   0.02612   2.16692
   A37        2.01192  -0.00231   0.00000  -0.00608  -0.00613   2.00579
   A38        2.13039  -0.00478   0.00000  -0.01988  -0.01993   2.11046
   A39        2.06262  -0.00094   0.00000  -0.00007  -0.00013   2.06250
   A40        2.11990   0.00071   0.00000   0.00141   0.00143   2.12133
   A41        2.10059   0.00023   0.00000  -0.00128  -0.00126   2.09933
   A42        2.04694  -0.00293   0.00000  -0.00969  -0.00967   2.03726
   A43        2.08956   0.00003   0.00000   0.00134   0.00136   2.09092
   A44        2.14668   0.00290   0.00000   0.00835   0.00832   2.15500
   A45        3.16650  -0.00193   0.00000  -0.02831  -0.02831   3.13819
   A46        3.13543   0.00038   0.00000   0.00561   0.00561   3.14104
    D1       -0.06302  -0.00016   0.00000  -0.00932  -0.00929  -0.07230
    D2       -2.19606   0.00083   0.00000   0.00117   0.00130  -2.19476
    D3        2.07165  -0.00073   0.00000  -0.01295  -0.01305   2.05859
    D4        0.02757   0.00038   0.00000   0.00799   0.00818   0.03576
    D5       -3.09948  -0.00020   0.00000  -0.01153  -0.01248  -3.11196
    D6        3.07118  -0.00043   0.00000  -0.01318  -0.01340   3.05778
    D7        0.94624  -0.00028   0.00000  -0.01005  -0.01024   0.93601
    D8       -1.08198  -0.00006   0.00000  -0.01000  -0.01009  -1.09206
    D9       -0.06769  -0.00017   0.00000  -0.00416  -0.00420  -0.07189
   D10       -2.19262  -0.00003   0.00000  -0.00104  -0.00103  -2.19366
   D11        2.06234   0.00019   0.00000  -0.00098  -0.00088   2.06146
   D12        2.27171   0.00229   0.00000   0.04810   0.04803   2.31974
   D13        0.14982  -0.00063   0.00000   0.02980   0.03002   0.17984
   D14       -1.84267   0.00110   0.00000   0.03857   0.03846  -1.80420
   D15       -0.87295   0.00202   0.00000   0.03803   0.03792  -0.83502
   D16       -2.99483  -0.00090   0.00000   0.01973   0.01991  -2.97492
   D17        1.29587   0.00084   0.00000   0.02849   0.02835   1.32422
   D18        0.01925   0.00003   0.00000  -0.00274  -0.00290   0.01635
   D19       -3.13800   0.00092   0.00000   0.01923   0.01899  -3.11901
   D20       -3.11937   0.00029   0.00000   0.00700   0.00678  -3.11260
   D21        0.00656   0.00117   0.00000   0.02897   0.02867   0.03523
   D22        0.00992   0.00038   0.00000   0.00780   0.00762   0.01754
   D23       -3.11516  -0.00064   0.00000  -0.01557  -0.01538  -3.13054
   D24       -3.06503   0.00163   0.00000   0.04066   0.04047  -3.02456
   D25        0.09308   0.00062   0.00000   0.01729   0.01747   0.11055
   D26       -0.02674   0.00023   0.00000   0.00740   0.00741  -0.01933
   D27        3.10160   0.00055   0.00000   0.01416   0.01416   3.11576
   D28       -3.13997  -0.00018   0.00000  -0.00373  -0.00367   3.13954
   D29        0.00313  -0.00021   0.00000  -0.00303  -0.00297   0.00016
   D30        0.08171   0.00032   0.00000   0.00964   0.00970   0.09141
   D31        2.18590  -0.00141   0.00000  -0.01126  -0.01129   2.17461
   D32       -2.02365   0.00173   0.00000   0.02469   0.02480  -1.99885
   D33        2.17967  -0.00152   0.00000  -0.01134  -0.01154   2.16813
   D34       -1.99932  -0.00324   0.00000  -0.03225  -0.03253  -2.03185
   D35        0.07432  -0.00011   0.00000   0.00371   0.00356   0.07788
   D36       -2.01930   0.00198   0.00000   0.02668   0.02690  -1.99240
   D37        0.08489   0.00026   0.00000   0.00577   0.00591   0.09080
   D38        2.15853   0.00340   0.00000   0.04173   0.04200   2.20053
   D39       -1.05371   0.00175   0.00000   0.02133   0.02139  -1.03231
   D40        2.15506   0.00092   0.00000  -0.00710  -0.00726   2.14780
   D41        1.05907  -0.00208   0.00000  -0.00988  -0.00978   1.04929
   D42       -2.01535  -0.00291   0.00000  -0.03832  -0.03843  -2.05378
   D43        3.09348   0.00144   0.00000   0.02609   0.02625   3.11973
   D44        0.01906   0.00061   0.00000  -0.00235  -0.00241   0.01665
   D45       -3.10487  -0.00064   0.00000  -0.01868  -0.01865  -3.12352
   D46        0.03159  -0.00052   0.00000  -0.01544  -0.01538   0.01621
   D47       -0.02930   0.00045   0.00000   0.01017   0.01002  -0.01928
   D48        3.10715   0.00057   0.00000   0.01340   0.01329   3.12044
   D49        3.11660   0.00073   0.00000   0.01740   0.01724   3.13384
   D50       -0.01085   0.00036   0.00000   0.01006   0.00997  -0.00088
   D51        0.04002  -0.00036   0.00000  -0.01104  -0.01101   0.02901
   D52       -3.08743  -0.00073   0.00000  -0.01838  -0.01828  -3.10571
   D53        0.00758  -0.00013   0.00000  -0.00519  -0.00522   0.00236
   D54        3.13618   0.00003   0.00000   0.00009   0.00011   3.13628
   D55       -3.12891  -0.00025   0.00000  -0.00842  -0.00847  -3.13738
   D56       -0.00031  -0.00009   0.00000  -0.00314  -0.00314  -0.00346
   D57       -3.13388   0.00006   0.00000   0.00247   0.00251  -3.13137
   D58        0.00617   0.00009   0.00000   0.00175   0.00178   0.00795
   D59        0.02055  -0.00010   0.00000  -0.00277  -0.00276   0.01779
   D60       -3.12258  -0.00007   0.00000  -0.00350  -0.00350  -3.12608
         Item               Value     Threshold  Converged?
 Maximum Force            0.029642     0.000450     NO 
 RMS     Force            0.007193     0.000300     NO 
 Maximum Displacement     0.584139     0.001800     NO 
 RMS     Displacement     0.110347     0.001200     NO 
 Predicted change in Energy=-1.015777D-02
 GradGradGradGradGradGradGradGradGradGradGradGradGradGradGradGradGradGrad

                          Input orientation:                          
 ---------------------------------------------------------------------
 Center     Atomic      Atomic             Coordinates (Angstroms)
 Number     Number       Type             X           Y           Z
 ---------------------------------------------------------------------
      1         17           0        4.744879    0.712118   -0.585597
      2         16           0       -3.399141    0.574057   -0.660865
      3          7           0       -1.672499   -1.088429    0.390110
      4          7           0       -1.042112    1.163640    0.516765
      5          7           0        2.865568    0.143512    1.131459
      6          7           0       -1.542728    3.593883    0.070282
      7          6           0       -2.711266   -2.021335   -0.098599
      8          6           0       -0.481986   -1.618551    1.101030
      9          6           0       -3.875645   -1.197833   -0.682339
     10          6           0       -1.907365    0.188356    0.155651
     11          6           0        0.821476   -1.039799    0.606503
     12          6           0        1.234057   -1.167819   -0.727190
     13          6           0        1.690581   -0.387639    1.489223
     14          6           0        2.452483   -0.633112   -1.116715
     15          6           0        3.232511    0.019928   -0.144735
     16          6           0       -1.310086    2.474717    0.276628
     17          1           0       -3.029965   -2.640870    0.745866
     18          1           0       -2.249628   -2.680446   -0.841872
     19          1           0       -0.517174   -2.704607    0.967519
     20          1           0       -0.614143   -1.432763    2.174896
     21          1           0       -4.098249   -1.480807   -1.714304
     22          1           0       -4.796212   -1.315914   -0.104502
     23          1           0        0.610416   -1.681773   -1.454194
     24          1           0        1.443039   -0.285350    2.545104
     25          1           0        2.807869   -0.716111   -2.137418
     26          1           0       -0.127786    0.928213    0.901010
 ---------------------------------------------------------------------
                    Distance matrix (angstroms):
                    1          2          3          4          5
     1  Cl   0.000000
     2  S    8.145538   0.000000
     3  N    6.736224   2.617193   0.000000
     4  N    5.908328   2.700001   2.342060   0.000000
     5  N    2.608334   6.530266   4.760392   4.085153   0.000000
     6  N    6.947572   3.619420   4.695017   2.521120   5.697740
     7  C    7.956320   2.743241   1.479252   3.648124   6.107429
     8  C    5.966309   4.052356   1.484505   2.897532   3.783108
     9  C    8.830102   1.834968   2.452747   3.878571   7.108658
    10  C    6.713876   1.743806   1.319209   1.352866   4.871869
    11  C    4.459082   4.693011   2.503817   2.887240   2.419528
    12  C    3.984982   4.950258   3.114920   3.487702   2.799284
    13  C    3.852672   5.608298   3.606863   3.289339   1.338174
    14  C    2.710500   5.992208   4.415123   4.255440   2.414140
    15  C    1.720681   6.674747   5.057038   4.474155   1.333638
    16  C    6.364966   2.975828   3.583328   1.359559   4.858122
    17  H    8.571087   3.528589   2.092690   4.298644   6.531369
    18  H    7.778065   3.456289   2.094129   4.252174   6.167172
    19  H    6.463388   4.659078   2.068866   3.929640   4.425110
    20  H    6.398433   4.452536   2.103365   3.110283   3.960024
    21  H    9.180622   2.412665   3.235241   4.616356   7.696202
    22  H    9.766103   2.415230   3.170800   4.541742   7.896860
    23  H    4.855817   4.668478   2.994197   3.835609   3.886254
    24  H    4.658152   5.870564   3.872404   3.519901   2.050829
    25  H    2.863563   6.509356   5.157589   5.039892   3.380509
    26  H    5.098977   3.642340   2.591140   1.019344   3.103068
                    6          7          8          9         10
     6  N    0.000000
     7  C    5.738003   0.000000
     8  C    5.418218   2.563403   0.000000
     9  C    5.382331   1.541002   3.856725   0.000000
    10  C    3.426057   2.365086   2.488043   2.549092   0.000000
    11  C    5.229531   3.733744   1.509478   4.873298   3.026252
    12  C    5.569587   4.085241   2.547617   5.109987   3.533716
    13  C    5.321673   4.956450   2.527031   6.029508   3.880129
    14  C    5.936174   5.443163   3.807964   6.368108   4.615409
    15  C    5.968441   6.284693   4.246649   7.231725   5.151400
    16  C    1.161565   4.724255   4.256787   4.581412   2.366184
    17  H    6.445188   1.094767   2.768298   2.199387   3.100501
    18  H    6.379572   1.095442   2.833204   2.206247   3.056505
    19  H    6.444205   2.533280   1.094798   4.033823   3.310739
    20  H    5.528005   3.148511   1.097802   4.342393   2.894443
    21  H    5.955495   2.196906   4.585023   1.092969   3.329085
    22  H    5.892522   2.201057   4.489703   1.093289   3.267406
    23  H    5.898525   3.603681   2.779660   4.577631   3.525366
    24  H    5.485253   5.221212   2.751090   6.287878   4.142353
    25  H    6.509814   6.026712   4.703732   6.857017   5.320683
    26  H    3.130170   4.046409   2.579045   4.590590   2.066362
                   11         12         13         14         15
    11  C    0.000000
    12  C    1.401909   0.000000
    13  C    1.399947   2.393654   0.000000
    14  C    2.407292   1.386435   2.726107   0.000000
    15  C    2.738698   2.396626   2.283304   1.407000   0.000000
    16  C    4.123614   4.555039   4.320587   5.075129   5.180610
    17  H    4.173302   4.745699   5.283293   6.128420   6.862334
    18  H    3.771099   3.799638   5.120177   5.135850   6.150761
    19  H    2.166542   2.881070   3.242638   4.177796   4.766586
    20  H    2.162239   3.450817   2.621866   4.569281   4.720989
    21  H    5.457502   5.431928   6.705830   6.632329   7.645639
    22  H    5.669231   6.064141   6.743896   7.350807   8.139194
    23  H    2.168674   1.087019   3.391937   2.146343   3.389078
    24  H    2.171107   3.395634   1.089323   3.814293   3.245094
    25  H    3.402886   2.160942   3.809036   1.083985   2.166301
    26  H    2.204746   2.983120   2.320328   3.628600   3.634578
                   16         17         18         19         20
    16  C    0.000000
    17  H    5.417325   0.000000
    18  H    5.358124   1.769578   0.000000
    19  H    5.285021   2.523353   2.505170   0.000000
    20  H    4.399564   3.055789   3.651358   1.756346   0.000000
    21  H    5.232957   2.922228   2.370163   4.638314   5.221799
    22  H    5.164031   2.366065   2.981736   4.624701   4.764348
    23  H    4.894944   4.360334   3.090653   2.860479   3.838208
    24  H    4.510394   5.365958   5.553727   3.490561   2.384451
    25  H    5.741651   6.789576   5.578112   4.964944   5.551559
    26  H    2.044349   4.602725   4.534565   3.654235   2.726451
                   21         22         23         24         25
    21  H    0.000000
    22  H    1.762329   0.000000
    23  H    4.720124   5.584545   0.000000
    24  H    7.090666   6.856437   4.317133   0.000000
    25  H    6.961197   7.893957   2.495616   4.896359   0.000000
    26  H    5.329899   5.276491   3.592208   2.577454   4.533644
                   26
    26  H    0.000000
 Stoichiometry    C10H10ClN4S(1+)
 Framework group  C1[X(C10H10ClN4S)]
 Deg. of freedom    72
 Full point group                 C1      NOp   1
 Largest Abelian subgroup         C1      NOp   1
 Largest concise Abelian subgroup C1      NOp   1
                         Standard orientation:                         
 ---------------------------------------------------------------------
 Center     Atomic      Atomic             Coordinates (Angstroms)
 Number     Number       Type             X           Y           Z
 ---------------------------------------------------------------------
      1         17           0        4.761345    0.496863   -0.610486
      2         16           0       -3.380406    0.745206   -0.609437
      3          7           0       -1.725917   -1.034482    0.362716
      4          7           0       -0.988447    1.179182    0.565384
      5          7           0        2.871410   -0.045819    1.103295
      6          7           0       -1.376947    3.645158    0.213137
      7          6           0       -2.811739   -1.898723   -0.149403
      8          6           0       -0.556056   -1.646011    1.041842
      9          6           0       -3.940540   -1.000278   -0.690967
     10          6           0       -1.901913    0.259747    0.177485
     11          6           0        0.769258   -1.111350    0.555831
     12          6           0        1.164296   -1.209190   -0.785705
     13          6           0        1.675552   -0.533950    1.453099
     14          6           0        2.403449   -0.718380   -1.167552
     15          6           0        3.221547   -0.139212   -0.180166
     16          6           0       -1.195933    2.509411    0.376064
     17          1           0       -3.152479   -2.533405    0.674969
     18          1           0       -2.388011   -2.550867   -0.920866
     19          1           0       -0.643793   -2.723519    0.869042
     20          1           0       -0.670398   -1.494088    2.123052
     21          1           0       -4.184809   -1.234064   -1.730321
     22          1           0       -4.860874   -1.096203   -0.108675
     23          1           0        0.511018   -1.665952   -1.524764
     24          1           0        1.441851   -0.459279    2.514435
     25          1           0        2.746074   -0.780173   -2.194106
     26          1           0       -0.083174    0.886913    0.931610
 ---------------------------------------------------------------------
 Rotational constants (GHZ):           0.8029519           0.2332627           0.2020356
 Standard basis: 6-31++G(d,p) (6D, 7F)
 There are   372 symmetry adapted cartesian basis functions of A   symmetry.
 There are   372 symmetry adapted basis functions of A   symmetry.
   372 basis functions,   640 primitive gaussians,   372 cartesian basis functions
    65 alpha electrons       65 beta electrons
       nuclear repulsion energy      1261.0580571306 Hartrees.
 NAtoms=   26 NActive=   26 NUniq=   26 SFac= 1.00D+00 NAtFMM=   60 NAOKFM=F Big=F
 Integral buffers will be    131072 words long.
 Raffenetti 2 integral format.
 Two-electron integral symmetry is turned on.
 Nuclear repulsion after empirical dispersion term =     1261.0311908958 Hartrees.
 One-electron integrals computed using PRISM.
 NBasis=   372 RedAO= T EigKep=  1.72D-06  NBF=   372
 NBsUse=   372 1.00D-06 EigRej= -1.00D+00 NBFU=   372
 Initial guess from the checkpoint file:  "/scratch/cieritan/chk/THIACLOPRID_4.chk"
 B after Tr=     0.000000    0.000000    0.000000
         Rot=    0.999605   -0.019928   -0.001152    0.019798 Ang=  -3.22 deg.
 ExpMin= 3.60D-02 ExpMax= 2.52D+04 ExpMxC= 3.78D+03 IAcc=3 IRadAn=         5 AccDes= 0.00D+00
 Harris functional with IExCor=  402 and IRadAn=       5 diagonalized for initial guess.
 HarFok:  IExCor=  402 AccDes= 0.00D+00 IRadAn=         5 IDoV= 1 UseB2=F ITyADJ=14
 ICtDFT=  3500011 ScaDFX=  1.000000  1.000000  1.000000  1.000000
 FoFCou: FMM=F IPFlag=           0 FMFlag=      100000 FMFlg1=           0
[...]
 7720,0.00104031,0.00060947,0.00000147,0.00006129,-0.00001875,0.0003783
 1,0.00224146,-0.00065923,-0.04309915,-0.02164677,-0.00055790,0.0002155
 4,0.00021747,0.00005331,-0.00413195,-0.00117098,-0.00252615,-0.0052967
 9,-0.02936747,-0.00057137,0.00101556,0.00010839,-0.00160473,0.00007357
 ,-0.00112741,0.00250607,-0.00092695,0.00032240,-0.00066789,0.00055902,
 0.00008488,-0.00086925,0.00007382,-0.00009714,0.00009537,-0.00111248,-
 0.00018239,-0.00027333,-0.00005415,-0.00025559,-0.00009151,0.06130198,
 -0.00012901,-0.00014868,0.00009722,0.00000721,-0.00004554,0.00004820,0
 .00292472,-0.01323652,0.00147239,0.00007598,0.00039988,-0.00001214,-0.
 00025347,0.00017803,-0.00014764,0.00001317,0.00000964,0.00000417,-0.00
 229115,0.00064094,-0.00063078,-0.00717159,-0.31843907,-0.01327255,0.00
 001353,-0.00002392,-0.00027178,0.00097426,0.00089558,0.00042245,-0.006
 10538,-0.00643267,-0.00033170,0.00101292,0.00092424,-0.00133125,-0.000
 05913,-0.00029082,0.00139174,-0.00098064,-0.00001761,-0.00015019,0.000
 42490,0.00027574,0.00021067,-0.00006644,0.00000760,-0.00003082,0.00016
 612,0.00095016,-0.00017596,0.00035526,0.00011826,0.00020681,0.01172086
 ,0.34118961,-0.00011480,-0.00004746,-0.00003184,-0.00044653,0.00076588
 ,-0.00020356,-0.00563559,0.02564447,-0.00368246,0.00037281,0.00006764,
 0.00033289,0.00075394,0.00007045,-0.00013436,0.00000067,-0.00001810,0.
 00000106,-0.00029778,0.00105818,0.00091545,0.00125638,-0.02094557,-0.0
 4959290,0.00033431,0.00004627,0.00000807,-0.00345356,-0.00079337,-0.00
 200495,0.00225626,0.01211177,0.00249375,0.00062801,0.00030034,0.000203
 97,-0.00047200,-0.00009381,-0.00103098,-0.00062252,-0.00065729,-0.0000
 7592,0.00017345,0.00044090,0.00082200,0.00006769,0.00009760,0.00004217
 ,-0.00043233,-0.00007741,0.00028363,0.00014970,0.00012145,-0.00021349,
 0.00651999,0.01285132,0.05175267,-0.00012500,-0.00006297,-0.00003785,-
 0.00131966,0.00023748,-0.00009607,-0.00638021,-0.00284874,-0.03221368,
 0.00121562,0.00070252,0.00066665,0.00025383,0.00001762,-0.00036988,0.0
 0000842,0.00002923,0.00000067,-0.00027419,0.00229996,-0.00108655,-0.05
 328230,0.01239210,0.04257205,-0.00021579,0.00003008,-0.00042702,0.0005
 9139,-0.00489110,-0.00044327,-0.00333041,0.00773273,0.02698002,-0.0051
 1757,-0.00294473,0.00031171,0.00027555,0.00077164,0.00248220,0.0003032
 3,0.00044652,0.00150729,0.00020728,0.00002671,-0.00031076,0.00002224,-
 0.00008755,0.00008848,-0.00004690,-0.00020048,0.00015975,0.00006729,-0
 .00032759,-0.00012624,0.00096609,-0.00078999,-0.00124773,0.06751485,0.
 00005456,0.00001657,-0.00005363,0.00092644,-0.00027365,-0.00012405,0.0
 0210461,0.00231493,0.01523699,-0.00068380,0.00049641,-0.00115029,0.000
 76589,0.00016518,-0.00006757,-0.00006503,0.00010660,0.00002780,-0.0005
 3806,-0.00073560,0.00048668,0.01082157,-0.07319173,-0.07449096,0.00000
 113,-0.00002781,0.00010113,0.00031544,0.00238904,0.00175895,-0.0034364
 1,0.00377847,0.01277630,-0.00218768,-0.00004114,-0.00027325,-0.0001704
 0,0.00002689,0.00094451,-0.00020746,0.00017362,0.00048306,-0.00021878,
 0.00009955,0.00023661,0.00011860,-0.00028017,-0.00024463,-0.00005089,0
 .00012117,-0.00032385,0.00027202,0.00005195,0.00028087,0.00484425,-0.0
 0676332,-0.03071185,-0.01211092,0.07233998,-0.00000348,-0.00001761,0.0
 0004793,-0.00053790,0.00018885,-0.00006956,-0.00969443,0.00058272,-0.0
 1660820,0.00064829,0.00084979,0.00027339,0.00042214,0.00046714,-0.0000
 2382,0.00000404,-0.00003134,0.00002262,0.00059679,0.00155461,-0.000748
 06,0.04164849,-0.07048270,-0.28251732,0.00007028,-0.00003416,-0.000277
 20,-0.00031420,-0.00358839,0.00009461,0.00414669,-0.00318194,-0.009796
 06,0.00170123,0.00057675,0.00085031,-0.00274020,-0.00078427,0.00078165
 ,-0.00028985,-0.00024018,-0.00059195,-0.00020202,0.00000601,0.00021567
 ,0.00007212,0.00012417,0.00001122,-0.00002772,-0.00002109,-0.00008344,
 -0.00000723,-0.00022871,-0.00023327,0.00076960,-0.00075750,0.00049081,
 -0.03707943,0.07442090,0.30811344,-0.00002493,-0.00000472,0.00001287,-
 0.00188151,-0.00217808,-0.00301594,-0.00464356,0.00221944,-0.00188734,
 -0.00012955,0.00007723,-0.00004853,-0.00005339,-0.00003013,0.00004129,
 0.00001331,-0.00001063,0.00000749,-0.01065163,-0.01021137,-0.01918332,
 -0.00021214,-0.00096504,-0.00016643,-0.10799524,-0.03969019,-0.1067414
 6,-0.00152008,0.00057023,-0.00048396,-0.00007425,0.00005241,-0.0002530
 6,-0.00001439,-0.00005456,-0.00008192,-0.00005226,0.00000718,0.0000851
 1,-0.00000548,0.00000108,0.00002898,0.00002569,-0.00000197,-0.00004348
 ,-0.00004787,0.00002344,-0.00000437,-0.00062248,0.00051012,-0.00013460
 ,0.00062670,-0.00066126,0.00016774,0.00002846,-0.00008135,0.00002894,-
 0.00020124,0.00001720,-0.00010293,0.11610226,0.00002115,0.00000499,-0.
 00000702,-0.01412856,-0.01009285,-0.01711871,0.00340164,-0.00087268,0.
 00076804,-0.00179886,0.00102062,-0.00030984,0.00005231,0.00004636,-0.0
 0002570,-0.00008413,0.00003836,-0.00003172,0.00688969,0.00812311,0.013
 56990,0.00026580,0.00066671,0.00003311,-0.04020557,-0.07213447,-0.0776
 3000,0.00099469,-0.00776308,0.00035249,0.00008913,-0.00000582,0.000180
 36,0.00000219,0.00000936,0.00000889,0.00001608,0.00001483,-0.00005122,
 0.00000879,0.00000463,-0.00000193,-0.00001584,-0.00000183,0.00002395,0
 .00003080,0.00020891,0.00002137,-0.00015338,-0.00057159,0.00008860,-0.
 00007638,0.00105667,0.00006813,-0.00001366,0.00008442,-0.00004133,0.00
 009015,-0.00000314,0.00004616,0.04329759,0.07790583,0.00001536,0.00000
 662,-0.00000577,0.00411375,0.00182849,0.00588091,0.00117058,0.00076638
 ,0.00110950,0.00097194,-0.00050011,0.00027656,0.00000637,-0.00001317,-
 0.00001211,0.00001373,0.00000996,0.00000210,0.00025812,-0.00094867,-0.
 00199963,-0.00002616,0.00001605,0.00024577,-0.11057095,-0.07567565,-0.
 24608008,0.00065489,0.00332373,0.00057392,-0.00002963,-0.00003123,-0.0
 0002497,0.00000756,0.00001065,0.00003262,-0.00000368,-0.00000492,-0.00
 000277,0.00000857,0.00001077,-0.00000104,-0.00002665,-0.00001130,0.000
 00527,0.00000100,-0.00015734,-0.00001876,-0.00032245,-0.00003100,-0.00
 002820,0.00035435,0.00010028,0.00108134,0.00001939,-0.00003372,-0.0000
 0255,0.00007863,-0.00002446,0.00003322,0.11549137,0.07871394,0.2562572
 1,0.00001040,0.00000441,-0.00000858,-0.00065270,-0.00456264,0.00319238
 ,0.00072882,-0.00046493,-0.00077682,0.00026743,0.00031573,0.00004030,0
 .00002475,-0.00000464,-0.00002685,-0.00002264,0.00003826,-0.00003194,-
 0.01442289,0.00139636,0.02180359,-0.00030164,0.00001610,0.00028368,-0.
 15531593,-0.00369822,0.13112033,-0.00124906,-0.00009530,-0.00002164,0.
 00000243,-0.00004646,-0.00004691,0.00004320,0.00006368,0.00011973,-0.0
 0001460,-0.00002250,0.00000493,0.00000340,-0.00002920,-0.00003793,-0.0
 0002855,-0.00000067,0.00002261,0.00004299,-0.00017322,0.00010500,0.001
 21033,-0.00011833,-0.00000367,-0.00361668,0.00196093,-0.00165288,0.000
 04449,0.00000308,0.00006458,0.00000690,-0.00004353,0.00000735,0.011363
 07,0.00135196,-0.01221591,0.16194075,-0.00000813,-0.00000159,0.0000065
 2,-0.02075758,-0.01355243,0.01759186,-0.00009538,0.00213871,-0.0006503
 7,-0.00072213,-0.00040894,-0.00137165,-0.00000317,0.00001095,0.0000109
 9,0.00007638,-0.00002576,-0.00003548,0.01098626,-0.00114935,-0.0145023
 1,0.00008205,0.00012077,0.00004054,-0.00805622,-0.04091566,0.00995419,
 0.00324198,-0.00381772,0.00450482,-0.00001919,0.00009060,0.00000513,-0
 .00003928,-0.00004929,-0.00013092,0.00000663,0.00002467,0.00002766,0.0
 0000563,0.00002448,0.00003575,0.00003590,0.00000439,-0.00001590,-0.000
 17189,0.00052350,0.00011118,0.00032383,0.00072135,-0.00051946,0.003861
 45,-0.00068258,0.00107643,-0.00010318,0.00005204,-0.00008290,-0.000054
 18,0.00004486,0.00000870,0.00710571,0.00273857,-0.00762786,0.00405235,
 0.05433348,0.00000662,0.00000253,-0.00000429,-0.00061997,0.00162069,0.
 00169443,0.00123321,0.00038514,-0.00035822,-0.00001388,-0.00020329,-0.
 00036842,0.00001918,0.00000390,-0.00001696,0.00001760,-0.00002599,0.00
 000738,-0.00544777,-0.00087009,0.00718246,-0.00013327,0.00002216,-0.00
 006687,0.13237149,0.00590527,-0.22780488,-0.00034978,-0.00021735,0.001
 16976,0.00002782,-0.00001150,0.00001144,0.00000528,0.00003414,0.000047
 55,-0.00000951,-0.00001353,-0.00000353,0.00000302,-0.00001376,-0.00001
 550,-0.00001508,-0.00000026,0.00001639,-0.00006247,0.00006540,0.000021
 23,0.00009556,-0.00028970,0.00106477,-0.00170157,0.00063843,0.00100520
 ,0.00003441,0.00000209,0.00001241,-0.00001524,-0.00001289,0.00003587,0
 .01633344,0.00138233,-0.01739527,-0.14178218,-0.00839819,0.23384224,-0
 .00122767,-0.00045966,-0.00054384,0.00008123,-0.00002150,0.00004000,0.
 00009824,-0.00038818,-0.00018687,-0.00009293,-0.00025150,-0.00006485,-
 0.00088519,0.00133645,0.00018590,-0.00000182,-0.00002639,0.00000551,-0
 .00032762,0.00019075,0.00028901,-0.00009225,0.00132552,0.00000819,-0.0
 0001308,-0.00002175,-0.00002755,-0.00007961,0.00051642,-0.00006205,0.0
 0953085,0.00462645,0.00644665,-0.15134622,-0.08389962,-0.10368906,0.00
 109670,-0.00189583,0.00342979,-0.01140137,-0.01407471,-0.02022126,-0.0
 0184464,-0.00435758,0.00337910,-0.00000510,0.00006915,-0.00002663,0.00
 004976,-0.00005731,-0.00008082,-0.00015700,-0.00012713,-0.00006962,0.0
 0033208,0.00012954,-0.00011589,0.00011789,0.00001715,-0.00009453,-0.00
 000410,-0.00001078,0.00000134,0.00000116,-0.00002043,-0.00000064,0.155
 77929,-0.00012946,-0.00073332,-0.00001854,0.00006751,-0.00003780,0.000
 07147,0.00017705,0.00026189,0.00044610,0.00000834,0.00002309,0.0001297
 7,0.00133033,-0.00258092,0.00105783,-0.00000144,0.00000912,0.00001943,
 0.00016457,0.00000189,0.00008315,0.00067397,-0.00176189,0.00013358,0.0
 0002997,0.00006230,0.00000887,0.00018505,-0.00027915,-0.00018743,-0.00
 281804,0.00215413,-0.00145355,-0.08450662,-0.10794357,-0.09132724,-0.0
 0131252,0.00563462,-0.00177551,-0.00615944,0.00039525,-0.00820766,-0.0
 0432012,0.00719663,-0.00081758,0.00003006,-0.00006109,-0.00001096,-0.0
 0002864,0.00000289,0.00004849,0.00002638,0.00020284,0.00000104,-0.0001
 5418,-0.00029025,-0.00008053,0.00002857,-0.00010003,-0.00001931,0.0000
 1731,0.00000102,-0.00000782,0.00000963,-0.00001905,-0.00000272,0.09513
 675,0.10107240,0.00039020,0.00039724,0.00012637,-0.00009350,0.00003856
 ,-0.00005616,0.00009886,0.00045213,0.00016468,0.00032275,0.00028803,0.
 00015679,-0.00007666,0.00104391,0.00012632,0.00000044,0.00002790,-0.00
 000324,0.00019288,0.00003408,-0.00015583,-0.00133307,0.00040207,0.0003
 3434,-0.00001731,0.00000527,0.00014801,0.00016513,-0.00110583,-0.00005
 492,-0.01880452,-0.01422528,-0.01324277,-0.10514819,-0.09179016,-0.179
 24425,0.00447740,-0.00132275,-0.00438123,0.00660355,0.00460111,0.01033
 768,0.00329131,-0.00105112,0.00109408,0.00004328,-0.00008350,0.0000395
 6,0.00001774,-0.00000362,-0.00001078,0.00017218,0.00008821,0.00029781,
 0.00050968,0.00043314,-0.00028200,-0.00019808,0.00017050,0.00007955,0.
 00000349,0.00000590,0.00000759,-0.00003709,0.00003720,-0.00001709,0.11
 141671,0.10082205,0.18503314,-0.00033168,-0.00008999,0.00059694,0.0000
 6128,0.00001064,0.00004213,0.00011105,-0.00015766,0.00022703,0.0001239
 1,-0.00003901,0.00022129,-0.01762266,0.00215220,0.03280966,-0.00000371
 ,-0.00002350,-0.00000186,-0.00000427,-0.00004707,-0.00005073,0.0003913
 0,0.00108720,-0.00239223,0.00000905,-0.00002151,0.00001350,-0.00003561
 ,-0.00003559,-0.00013873,0.00773793,-0.00381098,-0.01713362,-0.0015346
 9,-0.00434117,-0.00169876,-0.06266528,0.00455474,0.05220607,-0.0008587
 4,0.00012388,0.00030241,-0.00118404,-0.00432385,0.00392703,0.00001905,
 0.00008174,0.00001827,0.00000052,-0.00000295,0.00000551,0.00000933,0.0
 0001376,0.00001816,0.00011765,0.00010218,0.00023092,-0.00057224,-0.000
 18897,0.00050009,0.00000379,0.00000250,-0.00000193,-0.00000887,0.00000
 833,-0.00000369,0.00049412,-0.00018548,-0.00100953,0.07600567,-0.00017
 398,0.00019317,0.00012035,0.00001069,-0.00005435,0.00000367,0.00030110
 ,0.00000577,0.00057320,-0.00056811,-0.00008964,-0.00037609,-0.00312698
 ,-0.00124684,0.01401082,-0.00000924,-0.00000739,-0.00001556,0.00007487
 ,-0.00013311,-0.00001812,0.00137041,-0.00227030,-0.00042010,0.00001577
 ,0.00003318,0.00001900,0.00013024,0.00072024,0.00006045,0.00256948,0.0
 0271816,-0.01391816,-0.00458430,0.00363160,-0.00265761,0.00430825,-0.0
 5171607,-0.04722471,-0.00003024,-0.00067932,0.00048783,-0.00515953,0.0
 0797550,-0.00023895,-0.00003200,-0.00003449,-0.00001045,-0.00000815,0.
 00000135,-0.00000524,-0.00000791,0.00000737,0.00000326,-0.00029541,-0.
 00008341,-0.00020496,-0.00068856,-0.00006721,0.00004315,0.00001250,-0.
 00001644,0.00000245,0.00000060,-0.00000555,-0.00000018,0.00028636,0.00
 001502,-0.00064111,0.00436876,0.04231413,0.00016998,-0.00002058,-0.000
 15143,0.00008815,0.00003915,0.00004639,-0.00008793,0.00015428,0.000265
 03,0.00011867,0.00015109,0.00040864,0.01014703,0.00416513,-0.00592906,
 0.00000646,-0.00002640,0.00001089,-0.00003684,-0.00010687,-0.00004814,
 0.00052640,0.00098037,-0.00002358,0.00001521,-0.00001966,0.00004554,-0
 .00013060,-0.00032633,-0.00023868,0.00650364,-0.00171681,-0.01336015,-
 0.00255693,-0.00287882,-0.00014340,0.05440120,-0.04845508,-0.30944840,
 -0.00030025,0.00012999,0.00030899,0.00038801,-0.00151260,0.00299146,-0
 .00000778,0.00016627,-0.00001652,-0.00000459,-0.00000192,0.00000432,0.
 00003767,0.00002952,0.00002834,0.00004365,0.00006337,0.00024587,-0.001
 08152,-0.00038498,0.00061791,0.00001222,0.00000560,-0.00001201,-0.0000
 1338,0.00001419,-0.00000468,0.00038015,-0.00004190,-0.00064764,-0.0681
 6230,0.04929772,0.32645502,-0.00082214,-0.00007818,-0.00105497,-0.0000
 6700,0.00002192,-0.00004108,-0.00000550,0.00015520,-0.00014180,0.00003
 743,0.00009360,-0.00000985,-0.00053806,-0.00393573,-0.00357649,0.00000
 305,0.00001926,-0.00001592,-0.00000236,0.00008736,0.00008859,0.0002747
 7,0.00022550,0.00144822,-0.00000057,-0.00000417,-0.00002485,0.00002551
 ,-0.00026553,0.00005355,-0.00261323,-0.00519006,0.00094945,-0.00450240
 ,0.00414503,0.02623251,-0.00133816,-0.00059697,0.00003153,-0.08588412,
 0.00513434,0.09390675,0.00951983,-0.00150206,-0.01779013,-0.00000869,-
 0.00003352,0.00002668,0.00001089,0.00000128,-0.00000404,0.00000053,-0.
 00001013,-0.00000882,0.00002199,0.00002096,-0.00000184,-0.00042980,-0.
 00007718,0.00011640,-0.00001267,0.00000320,0.00000509,0.00000561,-0.00
 000134,0.00000097,-0.00014287,0.00192093,-0.00065833,-0.00013248,0.000
 65384,-0.00016410,0.08661270,0.00019058,-0.00123064,0.00002742,-0.0000
 0249,0.00000223,-0.00001509,0.00009112,-0.00010295,0.00009585,-0.00009
 367,-0.00000744,0.00002704,-0.00343947,0.00284780,-0.00405148,-0.00000
 939,-0.00000589,0.00001720,0.00000201,0.00003202,0.00002470,-0.0003661
 9,0.00052335,0.00037219,0.00000573,0.00001351,-0.00001047,0.00008098,0
 .00008988,-0.00002517,-0.00487257,0.00616632,-0.00117924,-0.00356193,0
 .00512157,0.01077145,-0.00103266,-0.00050077,0.00045516,0.00445108,-0.
 04669870,-0.03829532,0.00668507,0.00086305,-0.01253089,0.00000552,0.00
 000732,-0.00003047,0.00000238,-0.00000018,0.00000311,-0.00001752,-0.00
 000290,-0.00000512,0.00003589,-0.00001782,-0.00005012,-0.00010185,-0.0
 0019075,0.00009314,-0.00000398,0.00000162,0.00000183,0.00000420,-0.000
 01014,0.00000170,0.00198561,-0.00332143,0.00119932,0.00070670,-0.00122
 043,0.00027030,-0.00074413,0.03768071,-0.00019935,0.00045704,0.0005016
 6,-0.00000760,-0.00000253,0.00000135,-0.00000783,0.00001012,-0.0000205
 8,-0.00004447,-0.00000126,-0.00001974,-0.00187837,-0.00314210,-0.00175
 905,-0.00000192,0.00000138,0.00000027,0.00000706,-0.00000329,0.0000017
 6,-0.00013885,-0.00021465,0.00005112,0.00000202,0.00000371,0.00000310,
 0.00003020,0.00003498,0.00000950,0.00135687,-0.00131239,0.00251607,0.0
 0051718,-0.00124631,-0.00133546,-0.00142471,-0.00027965,0.00092475,0.0
 9205427,-0.03888711,-0.31410921,0.00948623,0.00001943,-0.01352684,0.00
 000141,-0.00001087,-0.00000434,0.00000156,-0.00000080,-0.00000114,0.00
 000165,0.00000010,0.00000152,0.00001260,0.00000268,-0.00000062,0.00000
 654,0.00004459,-0.00002020,-0.00000046,-0.00000112,0.00000195,-0.00000
 034,-0.00000104,-0.00000049,-0.00040389,0.00129027,0.00030447,-0.00005
 004,0.00040277,-0.00019076,-0.09936685,0.04285268,0.32666247,0.0009121
 2,0.00038111,-0.00023078,0.00237710,-0.00007154,0.00125244,-0.00143874
 ,0.00550685,-0.00044642,-0.35428404,0.06507481,-0.11704456,-0.00212703
 ,-0.00106809,0.00142897,0.00023608,-0.00497838,-0.00023379,-0.00127221
 ,-0.00005369,-0.00039759,0.00412846,-0.00097370,0.00054329,0.00011937,
 -0.00043811,-0.00059051,-0.01801803,-0.00885359,-0.00697797,0.00284355
 ,0.00029686,0.00033389,-0.00155909,0.00015610,0.00246913,0.00009166,-0
 .00185196,-0.00230592,0.00182485,0.00110351,0.00019076,-0.00230384,-0.
 00114768,-0.00132553,0.00252136,0.01035832,0.00154863,0.00010445,0.000
 18174,0.00004484,0.00044488,0.00021664,0.00024708,-0.00085756,-0.00001
 655,0.00000292,-0.00025528,-0.00027978,0.00039040,-0.00001652,-0.00003
 051,0.00002533,-0.00006216,0.00026559,0.00000646,0.00004018,-0.0001905
 0,-0.00032934,-0.00013036,0.00058154,-0.00029223,-0.00001227,-0.000001
 02,0.00004709,0.36669305,-0.00114825,-0.00054152,0.00031474,-0.0010290
 5,-0.00342980,-0.00030863,0.00092453,-0.00303429,0.00078542,0.06196673
 ,-0.07966233,0.02052156,0.00020503,-0.00021170,-0.00019467,-0.00248242
 ,0.00085797,-0.00079737,0.00001715,-0.00018614,-0.00040249,-0.00327551
 ,-0.00278002,0.00048417,-0.00070787,0.00027448,-0.00106279,-0.02506078
 ,0.01684759,-0.00899402,-0.00213900,0.00159195,0.00063070,0.00204745,0
 .00006976,-0.00333535,0.00213853,0.00124430,0.00176004,-0.00228304,-0.
 00118188,-0.00054817,0.00148165,0.00127490,0.00146403,0.03318066,-0.01
 512781,0.01146251,-0.00000405,-0.00001885,0.00005991,-0.00023308,-0.00
 009343,-0.00011898,0.00023785,0.00006347,0.00022843,0.00030333,-0.0004
 5066,0.00042512,-0.00001814,-0.00046412,0.00027608,0.00004234,-0.00019
 031,-0.00000434,-0.00000777,0.00009540,0.00017676,0.00005509,0.0000090
 7,0.00002498,-0.00004340,-0.00003931,-0.00001662,-0.06416798,0.0850832
 7,0.00005356,0.00006880,-0.00001782,0.00017986,-0.00166137,0.00289253,
 0.00065305,0.00277330,-0.00152931,-0.10812757,0.02129813,-0.04792242,-
 0.00097438,-0.00074192,0.00075912,0.00001106,-0.00178067,0.00123941,0.
 00023865,0.00031501,-0.00065239,0.00131020,-0.00051838,0.00153022,-0.0
 0087985,0.00058627,0.00025313,-0.01366596,-0.00437103,-0.00445816,-0.0
 0101719,0.00091207,-0.00024548,-0.00009194,-0.00023562,-0.00021054,0.0
 0166492,-0.00002444,0.00138903,0.00114770,0.00058782,-0.00039692,-0.00
 025397,-0.00068047,-0.00134779,-0.00133167,0.00502205,-0.00161405,0.00
 025332,0.00008702,0.00009290,0.00004076,-0.00002517,0.00005458,-0.0000
 8863,-0.00006023,-0.00034908,-0.00012068,0.00089353,-0.00069912,-0.000
 06516,-0.00005018,0.00007523,-0.00010837,-0.00008908,-0.00005493,0.000
 00515,-0.00016129,-0.00015453,-0.00047560,0.00070659,-0.00121396,-0.00
 000069,-0.00001971,0.00000843,0.12164341,-0.02283103,0.05257193\\-0.00
 000031,-0.00000405,0.,-0.00000923,-0.00000907,0.00000274,0.00000135,-0
 .00000301,0.00000681,-0.00000231,-0.00000694,-0.00001417,0.00001668,0.
 00000467,-0.00001957,-0.00000054,0.00000384,0.00000537,-0.00001072,-0.
 00000170,0.00000255,-0.00002298,0.00000289,-0.00000635,0.00000711,0.00
 000972,-0.00001149,0.00002284,0.00000369,0.00000749,0.00001887,0.00002
 060,0.00002636,0.00001556,0.00000226,-0.00001960,-0.00002300,-0.000035
 96,-0.00000091,-0.00002117,-0.00001620,-0.00000623,0.00000056,0.000019
 03,0.00002457,0.00000435,-0.00001302,-0.00000413,0.00000311,0.00000067
 ,-0.00000894,0.00000181,0.00000719,0.00000066,0.00000360,0.00000606,0.
 00000078,0.00000266,-0.00000266,-0.00000113,-0.00000276,-0.00000419,0.
 00000681,0.00000293,0.00000220,0.00000113,-0.00000281,0.00000256,0.000
 00180,-0.00000030,0.00000680,-0.00000320,0.00000278,0.00000272,0.00000
 228,-0.00000810,0.00000191,0.00000637\\\@


 Everything starts as somebody's daydream.
                           -- Larry Niven
 Job cpu time:       0 days  1 hours 38 minutes 53.9 seconds.
 Elapsed time:       0 days  0 hours 12 minutes 22.4 seconds.
 File lengths (MBytes):  RWF=    386 Int=      0 D2E=      0 Chk=     12 Scr=      1
 Normal termination of Gaussian 16 at Mon Jul 30 20:58:08 2018.
