
Lmod is automatically replacing "intel/2020.1.217" with "gcc/10.3.0".


Due to MODULEPATH changes, the following have been reloaded:
  1) blis/0.8.1     2) flexiblas/3.0.4

The following have been reloaded with a version change:
  1) gcccore/.9.3.0 => gcccore/.10.3.0        3) openmpi/4.0.3 => openmpi/4.1.1
  2) libfabric/1.10.1 => libfabric/1.12.1     4) ucx/1.8.0 => ucx/1.9.0

To execute ORCA, run: 
   ${EBROOTORCA}/orca orca.inp > orca.out

                                 *****************
                                 * O   R   C   A *
                                 *****************

                                            #,                                       
                                            ###                                      
                                            ####                                     
                                            #####                                    
                                            ######                                   
                                           ########,                                 
                                     ,,################,,,,,                         
                               ,,#################################,,                 
                          ,,##########################################,,             
                       ,#########################################, ''#####,          
                    ,#############################################,,   '####,        
                  ,##################################################,,,,####,       
                ,###########''''           ''''###############################       
              ,#####''   ,,,,##########,,,,          '''####'''          '####       
            ,##' ,,,,###########################,,,                        '##       
           ' ,,###''''                  '''############,,,                           
         ,,##''                                '''############,,,,        ,,,,,,###''
      ,#''                                            '''#######################'''  
     '                                                          ''''####''''         
             ,#######,   #######,   ,#######,      ##                                
            ,#'     '#,  ##    ##  ,#'     '#,    #''#        ######   ,####,        
            ##       ##  ##   ,#'  ##            #'  '#       #        #'  '#        
            ##       ##  #######   ##           ,######,      #####,   #    #        
            '#,     ,#'  ##    ##  '#,     ,#' ,#      #,         ##   #,  ,#        
             '#######'   ##     ##  '#######'  #'      '#     #####' # '####'        



                  #######################################################
                  #                        -***-                        #
                  #          Department of theory and spectroscopy      #
                  #    Directorship and core code : Frank Neese         #
                  #        Max Planck Institute fuer Kohlenforschung    #
                  #                Kaiser Wilhelm Platz 1               #
                  #                 D-45470 Muelheim/Ruhr               #
                  #                      Germany                        #
                  #                                                     #
                  #                  All rights reserved                #
                  #                        -***-                        #
                  #######################################################


                         Program Version 5.0.2 -  RELEASE  -


 With contributions from (in alphabetic order):
   Daniel Aravena         : Magnetic Suceptibility
   Michael Atanasov       : Ab Initio Ligand Field Theory (pilot matlab implementation)
   Alexander A. Auer      : GIAO ZORA, VPT2 properties, NMR spectrum
   Ute Becker             : Parallelization
   Giovanni Bistoni       : ED, misc. LED, open-shell LED, HFLD
   Martin Brehm           : Molecular dynamics
   Dmytro Bykov           : SCF Hessian
   Vijay G. Chilkuri      : MRCI spin determinant printing, contributions to CSF-ICE
   Dipayan Datta          : RHF DLPNO-CCSD density
   Achintya Kumar Dutta   : EOM-CC, STEOM-CC
   Dmitry Ganyushin       : Spin-Orbit,Spin-Spin,Magnetic field MRCI
   Miquel Garcia          : C-PCM and meta-GGA Hessian, CC/C-PCM, Gaussian charge scheme
   Yang Guo               : DLPNO-NEVPT2, F12-NEVPT2, CIM, IAO-localization
   Andreas Hansen         : Spin unrestricted coupled pair/coupled cluster methods
   Benjamin Helmich-Paris : MC-RPA, TRAH-SCF, COSX integrals
   Lee Huntington         : MR-EOM, pCC
   Robert Izsak           : Overlap fitted RIJCOSX, COSX-SCS-MP3, EOM
   Marcus Kettner         : VPT2
   Christian Kollmar      : KDIIS, OOCD, Brueckner-CCSD(T), CCSD density, CASPT2, CASPT2-K
   Simone Kossmann        : Meta GGA functionals, TD-DFT gradient, OOMP2, MP2 Hessian
   Martin Krupicka        : Initial AUTO-CI
   Lucas Lang             : DCDCAS
   Marvin Lechner         : AUTO-CI (C++ implementation), FIC-MRCC
   Dagmar Lenk            : GEPOL surface, SMD
   Dimitrios Liakos       : Extrapolation schemes; Compound Job, initial MDCI parallelization
   Dimitrios Manganas     : Further ROCIS development; embedding schemes
   Dimitrios Pantazis     : SARC Basis sets
   Anastasios Papadopoulos: AUTO-CI, single reference methods and gradients
   Taras Petrenko         : DFT Hessian,TD-DFT gradient, ASA, ECA, R-Raman, ABS, FL, XAS/XES, NRVS
   Peter Pinski           : DLPNO-MP2, DLPNO-MP2 Gradient
   Christoph Reimann      : Effective Core Potentials
   Marius Retegan         : Local ZFS, SOC
   Christoph Riplinger    : Optimizer, TS searches, QM/MM, DLPNO-CCSD(T), (RO)-DLPNO pert. Triples
   Tobias Risthaus        : Range-separated hybrids, TD-DFT gradient, RPA, STAB
   Michael Roemelt        : Original ROCIS implementation
   Masaaki Saitow         : Open-shell DLPNO-CCSD energy and density
   Barbara Sandhoefer     : DKH picture change effects
   Avijit Sen             : IP-ROCIS
   Kantharuban Sivalingam : CASSCF convergence, NEVPT2, FIC-MRCI
   Bernardo de Souza      : ESD, SOC TD-DFT
   Georgi Stoychev        : AutoAux, RI-MP2 NMR, DLPNO-MP2 response
   Willem Van den Heuvel  : Paramagnetic NMR
   Boris Wezisla          : Elementary symmetry handling
   Frank Wennmohs         : Technical directorship


 We gratefully acknowledge several colleagues who have allowed us to
 interface, adapt or use parts of their codes:
   Stefan Grimme, W. Hujo, H. Kruse, P. Pracht,  : VdW corrections, initial TS optimization,
                  C. Bannwarth, S. Ehlert          DFT functionals, gCP, sTDA/sTD-DF
   Ed Valeev, F. Pavosevic, A. Kumar             : LibInt (2-el integral package), F12 methods
   Garnet Chan, S. Sharma, J. Yang, R. Olivares  : DMRG
   Ulf Ekstrom                                   : XCFun DFT Library
   Mihaly Kallay                                 : mrcc  (arbitrary order and MRCC methods)
   Jiri Pittner, Ondrej Demel                    : Mk-CCSD
   Frank Weinhold                                : gennbo (NPA and NBO analysis)
   Christopher J. Cramer and Donald G. Truhlar   : smd solvation model
   Lars Goerigk                                  : TD-DFT with DH, B97 family of functionals
   V. Asgeirsson, H. Jonsson                     : NEB implementation
   FAccTs GmbH                                   : IRC, NEB, NEB-TS, DLPNO-Multilevel, CI-OPT
                                                   MM, QMMM, 2- and 3-layer-ONIOM, Crystal-QMMM,
                                                   LR-CPCM, SF, NACMEs, symmetry and pop. for TD-DFT,
                                                   nearIR, NL-DFT gradient (VV10), updates on ESD,
                                                   ML-optimized integration grids
   S Lehtola, MJT Oliveira, MAL Marques          : LibXC Library
   Liviu Ungur et al                             : ANISO software


 Your calculation uses the libint2 library for the computation of 2-el integrals
 For citations please refer to: http://libint.valeyev.net

 Your ORCA version has been built with support for libXC version: 5.1.0
 For citations please refer to: https://tddft.org/programs/libxc/

 This ORCA versions uses:
   CBLAS   interface :  Fast vector & matrix operations
   LAPACKE interface :  Fast linear algebra routines
   SCALAPACK package :  Parallel linear algebra routines
   Shared memory     :  Shared parallel matrices
   BLAS/LAPACK       :  OpenBLAS 0.3.15  USE64BITINT DYNAMIC_ARCH NO_AFFINITY Zen SINGLE_THREADED
        Core in use  :  Zen
   Copyright (c) 2011-2014, The OpenBLAS Project


Your calculation utilizes the atom-pairwise dispersion correction
with the Becke-Johnson damping scheme (D3BJ)
Cite in your paper:
S.Grimme, S.Ehrlich, L.Goerigk, J Comput Chem, (2011), 32, 1456–1465 
S.Grimme, J.Antony, S.Ehrlich and H.Krieg, J.Chem.Phys., 132, (2010), 154104 
   

================================================================================

----- Orbital basis set information -----
Your calculation utilizes the basis: def2-TZVPP
   F. Weigend and R. Ahlrichs, Phys. Chem. Chem. Phys. 7, 3297 (2005).

----- AuxJ basis set information -----
Your calculation utilizes the auxiliary basis: def2/J
   F. Weigend, Phys. Chem. Chem. Phys. 8, 1057 (2006).

================================================================================
                                        WARNINGS
                       Please study these warnings very carefully!
================================================================================


WARNING: Geometry Optimization
  ===> : Switching off AutoStart
         For restart on a previous wavefunction, please use MOREAD

INFO   : the flag for use of the SHARK integral package has been found!

================================================================================
                                       INPUT FILE
================================================================================
NAME = GGG-H_tt_003_OptFreq.inp
|  1> # GGG-H_tt_003 (old 020)
|  2> ! wB97X-D3BJ Opt Freq def2-TZVPP def2/J RIJCOSX VeryTightSCF
|  3> ! PAL8 defgrid3 VeryTightOpt
|  4> 
|  5> %maxcore 4096
|  6> 
|  7> %geom
|  8>   MaxIter 300
|  9>   # MaxStep 0.1
| 10>   Calc_Hess true
| 11>   Recalc_Hess 10
| 12> end
| 13> 
| 14> %chelpg
| 15>   grid 0.1
| 16>   rmax 3.0
| 17> end
| 18> 
| 19> * xyz 1 1 
| 20>  N   -0.336985   +0.902908   -2.654133
| 21>  H   -0.665612   -0.039271   -2.446266
| 22>  C   +0.534739   +1.050916   -3.824515
| 23>  C   +1.944685   +0.779891   -3.292617
| 24>  H   +0.265994   +0.303874   -4.582895
| 25>  H   +0.430096   +2.065775   -4.237925
| 26>  O   +2.391306   -0.368731   -3.202568
| 27>  C   -0.225368   +1.804797   -1.623066
| 28>  C   -0.697217   +1.274645   -0.249513
| 29>  O   +0.313942   +2.898242   -1.775715
| 30>  N   +0.000000   +0.000000   +0.000000
| 31>  H   -1.782529   +1.092140   -0.220888
| 32>  H   -0.425959   +2.027393   +0.504706
| 33>  H   -0.525924   -0.871010   +0.063129
| 34>  C   +1.356678   +0.000000   +0.000000
| 35>  C   +2.117976   -1.337648   -0.112761
| 36>  O   +2.023324   +1.035552   +0.000000
| 37>  H   +1.591950   -2.096703   -0.710330
| 38>  H   +2.351261   -1.746880   +0.883947
| 39>  O   +2.609452   +1.804626   -2.778937
| 40>  H   +1.991112   +2.573028   -2.637918
| 41>  N   +3.390563   -0.956165   -0.804221
| 42>  H   +3.190273   -0.769728   -1.852204
| 43>  H   +3.648410   -0.021061   -0.413139
| 44>  H   +4.152749   -1.636636   -0.685029
| 45> *
| 46> 
| 47>                          ****END OF INPUT****
================================================================================

                       *****************************
                       * Geometry Optimization Run *
                       *****************************

Geometry optimization settings:
Update method            Update   .... BFGS
Choice of coordinates    CoordSys .... Z-matrix Internals
Initial Hessian          InHess   .... Almoef's Model

Convergence Tolerances:
Energy Change            TolE     ....  2.0000e-07 Eh
Max. Gradient            TolMAXG  ....  3.0000e-05 Eh/bohr
RMS Gradient             TolRMSG  ....  8.0000e-06 Eh/bohr
Max. Displacement        TolMAXD  ....  2.0000e-04 bohr
RMS Displacement         TolRMSD  ....  1.0000e-04 bohr
Strict Convergence                ....  False
------------------------------------------------------------------------------
                        ORCA OPTIMIZATION COORDINATE SETUP
------------------------------------------------------------------------------

The optimization will be done in new redundant internal coordinates
Making redundant internal coordinates   ...  (new redundants) done
Evaluating the initial hessian          ...  (Is done on the fly) done
Evaluating the coordinates              ...  done
Calculating the B-matrix                .... done
Calculating the G-matrix                .... done
Diagonalizing the G-matrix              .... done
Small eigenvalue found = 7.906e-03
Small eigenvalue found = 1.898e-02
Small eigenvalue found = 2.324e-02
The first mode is                       ....   45
The number of degrees of freedom        ....   69

    -----------------------------------------------------------------
                    Redundant Internal Coordinates


    -----------------------------------------------------------------
         Definition                    Initial Value    d2E/dq (diagonal element)
    -----------------------------------------------------------------
      1. B(H   1,N   0)                  1.0193         0.000000   
      2. B(C   2,N   0)                  1.4668         0.000000   
      3. B(C   3,C   2)                  1.5311         0.000000   
      4. B(H   4,C   2)                  1.0979         0.000000   
      5. B(H   5,C   2)                  1.1008         0.000000   
      6. B(O   6,C   3)                  1.2357         0.000000   
      7. B(C   7,N   0)                  1.3744         0.000000   
      8. B(C   8,C   7)                  1.5461         0.000000   
      9. B(O   9,C   7)                  1.2287         0.000000   
     10. B(N  10,C   8)                  1.4741         0.000000   
     11. B(H  11,C   8)                  1.1009         0.000000   
     12. B(H  12,C   8)                  1.0996         0.000000   
     13. B(H  13,N  10)                  1.0194         0.000000   
     14. B(C  14,N  10)                  1.3567         0.000000   
     15. B(C  15,C  14)                  1.5432         0.000000   
     16. B(O  16,C  14)                  1.2316         0.000000   
     17. B(H  17,C  15)                  1.1000         0.000000   
     18. B(H  18,C  15)                  1.1024         0.000000   
     19. B(O  19,C   3)                  1.3251         0.000000   
     20. B(H  20,O  19)                  0.9963         0.000000   
     21. B(N  21,C  15)                  1.4977         0.000000   
     22. B(H  22,H  20)                  3.6372         0.000000   
     23. B(H  22,N  21)                  1.0831         0.000000   
     24. B(H  23,N  21)                  1.0459         0.000000   
     25. B(H  24,N  21)                  1.0287         0.000000   
     26. A(H   1,N   0,C   2)          116.5898         0.000000   
     27. A(C   2,N   0,C   7)          118.9537         0.000000   
     28. A(H   1,N   0,C   7)          118.6703         0.000000   
     29. A(C   3,C   2,H   5)          112.4073         0.000000   
     30. A(C   3,C   2,H   4)          110.1770         0.000000   
     31. A(N   0,C   2,H   4)          109.6952         0.000000   
     32. A(N   0,C   2,C   3)          104.6086         0.000000   
     33. A(N   0,C   2,H   5)          109.6443         0.000000   
     34. A(H   4,C   2,H   5)          110.1579         0.000000   
     35. A(O   6,C   3,O  19)          120.6154         0.000000   
     36. A(C   2,C   3,O  19)          117.3713         0.000000   
     37. A(C   2,C   3,O   6)          121.5128         0.000000   
     38. A(C   8,C   7,O   9)          123.3307         0.000000   
     39. A(N   0,C   7,O   9)          121.7628         0.000000   
     40. A(N   0,C   7,C   8)          114.6254         0.000000   
     41. A(C   7,C   8,H  11)          112.3837         0.000000   
     42. A(C   7,C   8,N  10)          107.6093         0.000000   
     43. A(H  11,C   8,H  12)          109.8067         0.000000   
     44. A(N  10,C   8,H  12)          111.0487         0.000000   
     45. A(C   7,C   8,H  12)          107.4184         0.000000   
     46. A(N  10,C   8,H  11)          108.5733         0.000000   
     47. A(H  13,N  10,C  14)          121.0576         0.000000   
     48. A(C   8,N  10,C  14)          118.2270         0.000000   
     49. A(C   8,N  10,H  13)          120.3486         0.000000   
     50. A(C  15,C  14,O  16)          117.5027         0.000000   
     51. A(N  10,C  14,O  16)          122.7718         0.000000   
     52. A(N  10,C  14,C  15)          119.5585         0.000000   
     53. A(H  17,C  15,H  18)          109.6454         0.000000   
     54. A(C  14,C  15,H  18)          111.1057         0.000000   
     55. A(C  14,C  15,H  17)          113.6981         0.000000   
     56. A(H  18,C  15,N  21)          109.3998         0.000000   
     57. A(H  17,C  15,N  21)          109.3472         0.000000   
     58. A(C  14,C  15,N  21)          103.4218         0.000000   
     59. A(C   3,O  19,H  20)          109.8731         0.000000   
     60. A(H  23,N  21,H  24)          111.4350         0.000000   
     61. A(H  22,N  21,H  24)          111.2839         0.000000   
     62. A(C  15,N  21,H  24)          114.0530         0.000000   
     63. A(H  22,N  21,H  23)          104.6841         0.000000   
     64. A(C  15,N  21,H  23)          105.3420         0.000000   
     65. A(C  15,N  21,H  22)          109.4766         0.000000   
     66. D(H   4,C   2,N   0,C   7)   -175.6168         0.000000   
     67. D(H   5,C   2,N   0,C   7)    -54.5247         0.000000   
     68. D(H   5,C   2,N   0,H   1)    152.5924         0.000000   
     69. D(H   4,C   2,N   0,H   1)     31.5002         0.000000   
     70. D(C   3,C   2,N   0,H   1)    -86.6569         0.000000   
     71. D(C   3,C   2,N   0,C   7)     66.2261         0.000000   
     72. D(O   6,C   3,C   2,H   4)    -32.6241         0.000000   
     73. D(O  19,C   3,C   2,H   5)     32.1730         0.000000   
     74. D(O  19,C   3,C   2,H   4)    155.4468         0.000000   
     75. D(O   6,C   3,C   2,H   5)   -155.8979         0.000000   
     76. D(O  19,C   3,C   2,N   0)    -86.7249         0.000000   
     77. D(O   6,C   3,C   2,N   0)     85.2042         0.000000   
     78. D(O   9,C   7,N   0,H   1)    171.0413         0.000000   
     79. D(C   8,C   7,N   0,C   2)   -155.3795         0.000000   
     80. D(C   8,C   7,N   0,H   1)     -3.0611         0.000000   
     81. D(O   9,C   7,N   0,C   2)     18.7229         0.000000   
     82. D(H  12,C   8,C   7,O   9)     -1.9115         0.000000   
     83. D(H  12,C   8,C   7,N   0)    172.0865         0.000000   
     84. D(H  11,C   8,C   7,O   9)    118.9710         0.000000   
     85. D(N  10,C   8,C   7,O   9)   -121.5487         0.000000   
     86. D(N  10,C   8,C   7,N   0)     52.4493         0.000000   
     87. D(H  11,C   8,C   7,N   0)    -67.0310         0.000000   
     88. D(C  14,N  10,C   8,H  12)    -59.5630         0.000000   
     89. D(C  14,N  10,C   8,H  11)    179.6174         0.000000   
     90. D(C  14,N  10,C   8,C   7)     57.7380         0.000000   
     91. D(H  13,N  10,C   8,H  12)    127.3163         0.000000   
     92. D(H  13,N  10,C   8,H  11)      6.4967         0.000000   
     93. D(H  13,N  10,C   8,C   7)   -115.3827         0.000000   
     94. D(O  16,C  14,N  10,C   8)     11.0757         0.000000   
     95. D(C  15,C  14,N  10,H  13)      8.9640         0.000000   
     96. D(C  15,C  14,N  10,C   8)   -164.1058         0.000000   
     97. D(O  16,C  14,N  10,H  13)   -175.8546         0.000000   
     98. D(N  21,C  15,C  14,O  16)    -25.1000         0.000000   
     99. D(N  21,C  15,C  14,N  10)    150.3328         0.000000   
    100. D(H  18,C  15,C  14,O  16)     92.1677         0.000000   
    101. D(H  18,C  15,C  14,N  10)    -92.3996         0.000000   
    102. D(H  17,C  15,C  14,O  16)   -143.5703         0.000000   
    103. D(H  17,C  15,C  14,N  10)     31.8625         0.000000   
    104. D(H  20,O  19,C   3,O   6)   -159.4342         0.000000   
    105. D(H  20,O  19,C   3,C   2)     12.5712         0.000000   
    106. D(H  24,N  21,C  15,H  18)     41.7605         0.000000   
    107. D(H  24,N  21,C  15,H  17)    -78.3332         0.000000   
    108. D(H  24,N  21,C  15,C  14)    160.2189         0.000000   
    109. D(H  23,N  21,C  15,H  18)    -80.7490         0.000000   
    110. D(H  23,N  21,C  15,H  17)    159.1572         0.000000   
    111. D(H  23,N  21,C  15,C  14)     37.7093         0.000000   
    112. D(H  22,N  21,C  15,H  18)    167.1747         0.000000   
    113. D(H  22,N  21,C  15,H  17)     47.0810         0.000000   
    114. D(H  22,N  21,C  15,C  14)    -74.3669         0.000000   
    -----------------------------------------------------------------

Number of atoms                         .... 25
Number of degrees of freedom            .... 114

         *************************************************************
         *                GEOMETRY OPTIMIZATION CYCLE   1            *
         *************************************************************
---------------------------------
CARTESIAN COORDINATES (ANGSTROEM)
---------------------------------
  N     -0.336985    0.902908   -2.654133
  H     -0.665612   -0.039271   -2.446266
  C      0.534739    1.050916   -3.824515
  C      1.944685    0.779891   -3.292617
  H      0.265994    0.303874   -4.582895
  H      0.430096    2.065775   -4.237925
  O      2.391306   -0.368731   -3.202568
  C     -0.225368    1.804797   -1.623066
  C     -0.697217    1.274645   -0.249513
  O      0.313942    2.898242   -1.775715
  N      0.000000    0.000000    0.000000
  H     -1.782529    1.092140   -0.220888
  H     -0.425959    2.027393    0.504706
  H     -0.525924   -0.871010    0.063129
  C      1.356678    0.000000    0.000000
  C      2.117976   -1.337648   -0.112761
  O      2.023324    1.035552    0.000000
  H      1.591950   -2.096703   -0.710330
  H      2.351261   -1.746880    0.883947
  O      2.609452    1.804626   -2.778937
  H      1.991112    2.573028   -2.637918
  N      3.390563   -0.956165   -0.804221
  H      3.190273   -0.769728   -1.852204
  H      3.648410   -0.021061   -0.413139
  H      4.152749   -1.636636   -0.685029

----------------------------
CARTESIAN COORDINATES (A.U.)
----------------------------
  NO LB      ZA    FRAG     MASS         X           Y           Z
   0 N     7.0000    0    14.007   -0.636809    1.706249   -5.015584
   1 H     1.0000    0     1.008   -1.257824   -0.074211   -4.622773
   2 C     6.0000    0    12.011    1.010510    1.985943   -7.227286
   3 C     6.0000    0    12.011    3.674922    1.473780   -6.222144
   4 H     1.0000    0     1.008    0.502656    0.574239   -8.660416
   5 H     1.0000    0     1.008    0.812764    3.903749   -8.008518
   6 O     8.0000    0    15.999    4.518913   -0.696801   -6.051976
   7 C     6.0000    0    12.011   -0.425884    3.410572   -3.067150
   8 C     6.0000    0    12.011   -1.317549    2.408730   -0.471511
   9 O     8.0000    0    15.999    0.593264    5.476884   -3.355615
  10 N     7.0000    0    14.007    0.000000    0.000000    0.000000
  11 H     1.0000    0     1.008   -3.368492    2.063845   -0.417418
  12 H     1.0000    0     1.008   -0.804946    3.831218    0.953756
  13 H     1.0000    0     1.008   -0.993852   -1.645970    0.119297
  14 C     6.0000    0    12.011    2.563750    0.000000    0.000000
  15 C     6.0000    0    12.011    4.002395   -2.527788   -0.213087
  16 O     8.0000    0    15.999    3.823528    1.956910    0.000000
  17 H     1.0000    0     1.008    3.008350   -3.962194   -1.342329
  18 H     1.0000    0     1.008    4.443239   -3.301125    1.670418
  19 O     8.0000    0    15.999    4.931150    3.410249   -5.251430
  20 H     1.0000    0     1.008    3.762656    4.862318   -4.984943
  21 N     7.0000    0    14.007    6.407236   -1.806890   -1.519757
  22 H     1.0000    0     1.008    6.028742   -1.454575   -3.500158
  23 H     1.0000    0     1.008    6.894496   -0.039800   -0.780720
  24 H     1.0000    0     1.008    7.847558   -3.092794   -1.294517

--------------------------------
INTERNAL COORDINATES (ANGSTROEM)
--------------------------------
 N      0   0   0     0.000000000000     0.00000000     0.00000000
 H      1   0   0     1.019267218574     0.00000000     0.00000000
 C      1   2   0     1.466834389481   116.58984088     0.00000000
 C      3   1   2     1.531116506326   104.60856557   273.34312936
 H      3   1   2     1.097923425922   109.69517150    31.50022692
 H      3   1   2     1.100816413136   109.64431083   152.59235662
 O      4   3   1     1.235682661093   121.51278329    85.20417802
 C      1   2   3     1.374394878301   118.67030329   207.03736945
 C      8   1   2     1.546075827931   114.62543815   356.93893783
 O      8   1   2     1.228730630092   121.76281781   171.04125743
 N      9   8   1     1.474139802828   107.60930791    52.44928712
 H      9   8   1     1.100922160279   112.38373919   292.96902575
 H      9   8   1     1.099571168242   107.41838978   172.08653824
 H     11   9   8     1.019431088655   120.34862557   244.61727515
 C     11   9   8     1.356678000000   118.22695453    57.73803503
 C     15  11   9     1.543240700548   119.55845382   195.89417985
 O     15  11   9     1.231578188350   122.77177697    11.07565459
 H     16  15  11     1.099980252305   113.69809072    31.86247392
 H     16  15  11     1.102415329317   111.10571140   267.60041463
 O      4   3   1     1.325090233499   117.37130378   273.27508687
 H     20   4   3     0.996329437267   109.87309270    12.57117905
 N     16  15  11     1.497706207324   103.42175959   150.33276085
 H     22  16  15     1.083117356226   109.47661127   285.63309535
 H     22  16  15     1.045872696340   105.34202416    37.70932925
 H     22  16  15     1.028676340401   114.05303635   160.21886045

---------------------------
INTERNAL COORDINATES (A.U.)
---------------------------
 N      0   0   0     0.000000000000     0.00000000     0.00000000
 H      1   0   0     1.926135900388     0.00000000     0.00000000
 C      1   2   0     2.771915279937   116.58984088     0.00000000
 C      3   1   2     2.893390876083   104.60856557   273.34312936
 H      3   1   2     2.074774591010   109.69517150    31.50022692
 H      3   1   2     2.080241544553   109.64431083   152.59235662
 O      4   3   1     2.335101817901   121.51278329    85.20417802
 C      1   2   3     2.597229919852   118.67030329   207.03736945
 C      8   1   2     2.921659897066   114.62543815   356.93893783
 O      8   1   2     2.321964383234   121.76281781   171.04125743
 N      9   8   1     2.785720510458   107.60930791    52.44928712
 H      9   8   1     2.080441377693   112.38373919   292.96902575
 H      9   8   1     2.077888372733   107.41838978   172.08653824
 H     11   9   8     1.926445569964   120.34862557   244.61727515
 C     11   9   8     2.563749871916   118.22695453    57.73803503
 C     15  11   9     2.916302282757   119.55845382   195.89417985
 O     15  11   9     2.327345488493   122.77177697    11.07565459
 H     16  15  11     2.078661429579   113.69809072    31.86247392
 H     16  15  11     2.083263058246   111.10571140   267.60041463
 O      4   3   1     2.504057644047   117.37130378   273.27508687
 H     20   4   3     1.882789775599   109.87309270    12.57117905
 N     16  15  11     2.830254560917   103.42175959   150.33276085
 H     22  16  15     2.046795174164   109.47661127   285.63309535
 H     22  16  15     1.976412967028   105.34202416    37.70932925
 H     22  16  15     1.943916563802   114.05303635   160.21886045

---------------------
BASIS SET INFORMATION
---------------------
There are 4 groups of distinct atoms

 Group   1 Type N   : 11s6p2d1f contracted to 5s3p2d1f pattern {62111/411/11/1}
 Group   2 Type H   : 5s2p1d contracted to 3s2p1d pattern {311/11/1}
 Group   3 Type C   : 11s6p2d1f contracted to 5s3p2d1f pattern {62111/411/11/1}
 Group   4 Type O   : 11s6p2d1f contracted to 5s3p2d1f pattern {62111/411/11/1}

Atom   0N    basis set group =>   1
Atom   1H    basis set group =>   2
Atom   2C    basis set group =>   3
Atom   3C    basis set group =>   3
Atom   4H    basis set group =>   2
Atom   5H    basis set group =>   2
Atom   6O    basis set group =>   4
Atom   7C    basis set group =>   3
Atom   8C    basis set group =>   3
Atom   9O    basis set group =>   4
Atom  10N    basis set group =>   1
Atom  11H    basis set group =>   2
Atom  12H    basis set group =>   2
Atom  13H    basis set group =>   2
Atom  14C    basis set group =>   3
Atom  15C    basis set group =>   3
Atom  16O    basis set group =>   4
Atom  17H    basis set group =>   2
Atom  18H    basis set group =>   2
Atom  19O    basis set group =>   4
Atom  20H    basis set group =>   2
Atom  21N    basis set group =>   1
Atom  22H    basis set group =>   2
Atom  23H    basis set group =>   2
Atom  24H    basis set group =>   2
---------------------------------
AUXILIARY/J BASIS SET INFORMATION
---------------------------------
There are 4 groups of distinct atoms

 Group   1 Type N   : 12s5p4d2f1g contracted to 6s4p3d1f1g pattern {711111/2111/211/2/1}
 Group   2 Type H   : 5s2p1d contracted to 3s1p1d pattern {311/2/1}
 Group   3 Type C   : 12s5p4d2f1g contracted to 6s4p3d1f1g pattern {711111/2111/211/2/1}
 Group   4 Type O   : 12s5p4d2f1g contracted to 6s4p3d1f1g pattern {711111/2111/211/2/1}

Atom   0N    basis set group =>   1
Atom   1H    basis set group =>   2
Atom   2C    basis set group =>   3
Atom   3C    basis set group =>   3
Atom   4H    basis set group =>   2
Atom   5H    basis set group =>   2
Atom   6O    basis set group =>   4
Atom   7C    basis set group =>   3
Atom   8C    basis set group =>   3
Atom   9O    basis set group =>   4
Atom  10N    basis set group =>   1
Atom  11H    basis set group =>   2
Atom  12H    basis set group =>   2
Atom  13H    basis set group =>   2
Atom  14C    basis set group =>   3
Atom  15C    basis set group =>   3
Atom  16O    basis set group =>   4
Atom  17H    basis set group =>   2
Atom  18H    basis set group =>   2
Atom  19O    basis set group =>   4
Atom  20H    basis set group =>   2
Atom  21N    basis set group =>   1
Atom  22H    basis set group =>   2
Atom  23H    basis set group =>   2
Atom  24H    basis set group =>   2


           ************************************************************
           *        Program running with 8 parallel MPI-processes     *
           *              working on a common directory               *
           ************************************************************
------------------------------------------------------------------------------
                           ORCA GTO INTEGRAL CALCULATION
                           -- RI-GTO INTEGRALS CHOSEN --
------------------------------------------------------------------------------
------------------------------------------------------------------------------
                   ___                                                        
                  /   \      - P O W E R E D   B Y -                         
                 /     \                                                     
                 |  |  |   _    _      __       _____    __    __             
                 |  |  |  | |  | |    /  \     |  _  \  |  |  /  |          
                  \  \/   | |  | |   /    \    | | | |  |  | /  /          
                 / \  \   | |__| |  /  /\  \   | |_| |  |  |/  /          
                |  |  |   |  __  | /  /__\  \  |    /   |      \           
                |  |  |   | |  | | |   __   |  |    \   |  |\   \          
                \     /   | |  | | |  |  |  |  | |\  \  |  | \   \       
                 \___/    |_|  |_| |__|  |__|  |_| \__\ |__|  \__/        
                                                                              
                      - O R C A' S   B I G   F R I E N D -                    
                                      &                                       
                       - I N T E G R A L  F E E D E R -                       
                                                                              
 v1 FN, 2020, v2 2021                                                         
------------------------------------------------------------------------------


Reading SHARK input file GGG-H_tt_003_OptFreq.SHARKINP.tmp ... ok
----------------------
SHARK INTEGRAL PACKAGE
----------------------

Number of atoms                             ...     25
Number of basis functions                   ...    571
Number of shells                            ...    215
Maximum angular momentum                    ...      3
Integral batch strategy                     ... SHARK/LIBINT Hybrid
RI-J (if used) integral strategy            ... SPLIT-RIJ (Revised 2003 algorithm where possible)
Printlevel                                  ...      1
Contraction scheme used                     ... SEGMENTED contraction
Coulomb Range Separation                    ... NOT USED
Exchange Range Separation                   ... Long Range
   Mu parameter                             ...  0.300000
   Scaling (regular/separated)              ...  0.167000  0.833000
Finite Nucleus Model                        ... NOT USED
Auxiliary Coulomb fitting basis             ... AVAILABLE
   # of basis functions in Aux-J            ...    769
   # of shells in Aux-J                     ...    255
   Maximum angular momentum in Aux-J        ...      4
Auxiliary J/K fitting basis                 ... NOT available
Auxiliary Correlation fitting basis         ... NOT available
Auxiliary 'external' fitting basis          ... NOT available
Integral threshold                          ...     1.000000e-12
Primitive cut-off                           ...     1.000000e-14
Primitive pair pre-selection threshold      ...     1.000000e-14

Calculating pre-screening integrals         ... done (  0.1 sec) Dimension = 215
Organizing shell pair data                  ... done (  0.2 sec)
Shell pair information
Total number of shell pairs                 ...     23220
Shell pairs after pre-screening             ...     20559
Total number of primitive shell pairs       ...     63868
Primitive shell pairs kept                  ...     41649
          la=0 lb=0:   4438 shell pairs
          la=1 lb=0:   5742 shell pairs
          la=1 lb=1:   1883 shell pairs
          la=2 lb=0:   3258 shell pairs
          la=2 lb=1:   2163 shell pairs
          la=2 lb=2:    630 shell pairs
          la=3 lb=0:   1145 shell pairs
          la=3 lb=1:    766 shell pairs
          la=3 lb=2:    446 shell pairs
          la=3 lb=3:     88 shell pairs

Calculating one electron integrals          ... done (  0.0 sec)
Calculating RI/J V-Matrix + Cholesky decomp.... done (  0.2 sec)
Calculating Nuclear repulsion               ... done (  0.0 sec) ENN=    921.499652284092 Eh

SHARK setup successfully completed in   1.1 seconds

Maximum memory used throughout the entire GTOINT-calculation: 32.3 MB


           ************************************************************
           *        Program running with 8 parallel MPI-processes     *
           *              working on a common directory               *
           ************************************************************
-------------------------------------------------------------------------------
                                 ORCA SCF
-------------------------------------------------------------------------------

------------
SCF SETTINGS
------------
Hamiltonian:
 Density Functional     Method          .... DFT(GTOs)
 Exchange Functional    Exchange        .... WB97X-V
 Correlation Functional Correlation     .... WB97X-V
 Gradients option       PostSCFGGA      .... off
 Hybrid DFT is turned on
   Fraction HF Exchange ScalHFX         ....  0.167000
   Scaling of DF-GGA-X  ScalDFX         ....  0.000000
   Scaling of DF-GGA-C  ScalDFC         ....  1.000000
   Scaling of DF-LDA-C  ScalLDAC        ....  1.000000
   Perturbative correction              ....  0.000000
   Density functional embedding theory  .... OFF
 Long-range corrected/Screened/Range-Separated Hybrid DFT is turned on
   Amount of maximum screened exact exchange              ....  0.833000
   Range separation parameter mu (erf(mu*r12)/r12)        ....  0.300000
 RI-approximation to the Coulomb term is turned on
   Number of AuxJ basis functions       .... 769
   RIJ-COSX (HFX calculated with COS-X)).... on


General Settings:
 Integral files         IntName         .... GGG-H_tt_003_OptFreq
 Hartree-Fock type      HFTyp           .... RHF
 Total Charge           Charge          ....    1
 Multiplicity           Mult            ....    1
 Number of Electrons    NEL             ....  100
 Basis Dimension        Dim             ....  571
 Nuclear Repulsion      ENuc            ....    921.4996522841 Eh

Convergence Acceleration:
 DIIS                   CNVDIIS         .... on
   Start iteration      DIISMaxIt       ....    12
   Startup error        DIISStart       ....  0.200000
   # of expansion vecs  DIISMaxEq       ....     5
   Bias factor          DIISBfac        ....   1.050
   Max. coefficient     DIISMaxC        ....  10.000
 Trust-Rad. Augm. Hess. CNVTRAH         .... auto
   Auto Start mean grad. ratio tolernc. ....  1.125000
   Auto Start start iteration           ....    20
   Auto Start num. interpolation iter.  ....    10
   Max. Number of Micro iterations      ....    16
   Max. Number of Macro iterations      .... Maxiter - #DIIS iter
   Number of Davidson start vectors     ....     2
   Converg. threshold I  (grad. norm)   ....   2.000e-06
   Converg. threshold II (energy diff.) ....   1.000e-09
   Grad. Scal. Fac. for Micro threshold ....   0.100
   Minimum threshold for Micro iter.    ....   0.010
   NR start threshold (gradient norm)   ....   0.001
   Initial trust radius                 ....   0.400
   Minimum AH scaling param. (alpha)    ....   1.000
   Maximum AH scaling param. (alpha)    .... 1000.000
   Orbital update algorithm             .... Taylor
   White noise on init. David. guess    .... on
   Maximum white noise                  ....   0.010
   Quad. conv. algorithm                .... NR
 SOSCF                  CNVSOSCF        .... on
   Start iteration      SOSCFMaxIt      ....   150
   Startup grad/error   SOSCFStart      ....  0.003300
 Level Shifting         CNVShift        .... on
   Level shift para.    LevelShift      ....    0.2500
   Turn off err/grad.   ShiftErr        ....    0.0010
 Zerner damping         CNVZerner       .... off
 Static damping         CNVDamp         .... on
   Fraction old density DampFac         ....    0.7000
   Max. Damping (<1)    DampMax         ....    0.9800
   Min. Damping (>=0)   DampMin         ....    0.0000
   Turn off err/grad.   DampErr         ....    0.1000
 Fernandez-Rico         CNVRico         .... off

SCF Procedure:
 Maximum # iterations   MaxIter         ....   125
 SCF integral mode      SCFMode         .... Direct
   Integral package                     .... SHARK and LIBINT hybrid scheme
 Reset frequency        DirectResetFreq ....    20
 Integral Threshold     Thresh          ....  1.000e-12 Eh
 Primitive CutOff       TCut            ....  1.000e-14 Eh

Convergence Tolerance:
 Convergence Check Mode ConvCheckMode   .... Total+1el-Energy
 Convergence forced     ConvForced      .... 0
 Energy Change          TolE            ....  1.000e-09 Eh
 1-El. energy change                    ....  1.000e-06 Eh
 Orbital Gradient       TolG            ....  2.000e-06
 Orbital Rotation angle TolX            ....  2.000e-06
 DIIS Error             TolErr          ....  1.000e-08


Diagonalization of the overlap matrix:
Smallest eigenvalue                        ... 1.157e-04
Time for diagonalization                   ...    0.047 sec
Threshold for overlap eigenvalues          ... 1.000e-08
Number of eigenvalues below threshold      ... 0
Time for construction of square roots      ...    0.078 sec
Total time needed                          ...    0.137 sec

Time for model grid setup =    0.255 sec

------------------------------
INITIAL GUESS: MODEL POTENTIAL
------------------------------
Loading Hartree-Fock densities                     ... done
Calculating cut-offs                               ... done
Initializing the effective Hamiltonian             ... done
Setting up the integral package (SHARK)            ... done
Starting the Coulomb interaction                   ... done (   0.5 sec)
Reading the grid                                   ... done
Mapping shells                                     ... done
Starting the XC term evaluation                    ... done (   0.2 sec)
  promolecular density results
     # of electrons  =    100.989787665
     EX              =    -58.968875329
     EC              =     -4.275111470
     EX+EC           =    -63.243986799
Transforming the Hamiltonian                       ... done (   0.1 sec)
Diagonalizing the Hamiltonian                      ... done (   0.0 sec)
Back transforming the eigenvectors                 ... done (   0.0 sec)
Now organizing SCF variables                       ... done
                      ------------------
                      INITIAL GUESS DONE (   1.1 sec)
                      ------------------
-------------------
DFT GRID GENERATION
-------------------

General Integration Accuracy     IntAcc      ... 4.959
Radial Grid Type                 RadialGrid  ... OptM3 with GC (2021)
Angular Grid (max. ang.)         AngularGrid ... 6 (Lebedev-590)
Angular grid pruning method      GridPruning ... 4 (adaptive)
Weight generation scheme         WeightScheme... Becke
Basis function cutoff            BFCut       ... 1.0000e-12
Integration weight cutoff        WCut        ... 1.0000e-14
Angular grids for H and He will be reduced by one unit
Partially contracted basis set               ... off
Rotationally invariant grid construction     ... off

Total number of grid points                  ...   287908
Total number of batches                      ...     4512
Average number of points per batch           ...       63
Average number of grid points per atom       ...    11516
Time for grid setup =    3.344 sec

--------------------
COSX GRID GENERATION
--------------------

GRIDX 1
-------
General Integration Accuracy     IntAcc      ... 4.020
Radial Grid Type                 RadialGrid  ... OptM3 with GC (2021)
Angular Grid (max. ang.)         AngularGrid ... 2 (Lebedev-110)
Angular grid pruning method      GridPruning ... 4 (adaptive)
Weight generation scheme         WeightScheme... Becke
Basis function cutoff            BFCut       ... 1.0000e-12
Integration weight cutoff        WCut        ... 1.0000e-14
Angular grids for H and He will be reduced by one unit
Partially contracted basis set               ... on
Rotationally invariant grid construction     ... off

Total number of grid points                  ...    31947
Total number of batches                      ...      510
Average number of points per batch           ...       62
Average number of grid points per atom       ...     1278
UseSFitting                                  ... on

GRIDX 2
-------
General Integration Accuracy     IntAcc      ... 4.338
Radial Grid Type                 RadialGrid  ... OptM3 with GC (2021)
Angular Grid (max. ang.)         AngularGrid ... 3 (Lebedev-194)
Angular grid pruning method      GridPruning ... 4 (adaptive)
Weight generation scheme         WeightScheme... Becke
Basis function cutoff            BFCut       ... 1.0000e-12
Integration weight cutoff        WCut        ... 1.0000e-14
Angular grids for H and He will be reduced by one unit
Partially contracted basis set               ... on
Rotationally invariant grid construction     ... off

Total number of grid points                  ...    69949
Total number of batches                      ...     1106
Average number of points per batch           ...       63
Average number of grid points per atom       ...     2798
UseSFitting                                  ... on

GRIDX 3
-------
General Integration Accuracy     IntAcc      ... 4.871
Radial Grid Type                 RadialGrid  ... OptM3 with GC (2021)
Angular Grid (max. ang.)         AngularGrid ... 4 (Lebedev-302)
Angular grid pruning method      GridPruning ... 4 (adaptive)
Weight generation scheme         WeightScheme... Becke
Basis function cutoff            BFCut       ... 1.0000e-12
Integration weight cutoff        WCut        ... 1.0000e-14
Angular grids for H and He will be reduced by one unit
Partially contracted basis set               ... on
Rotationally invariant grid construction     ... off

Total number of grid points                  ...   132360
Total number of batches                      ...     2084
Average number of points per batch           ...       63
Average number of grid points per atom       ...     5294
UseSFitting                                  ... on

Time for X-Grid setup             =    2.500 sec

--------------
SCF ITERATIONS
--------------
ITER       Energy         Delta-E        Max-DP      RMS-DP      [F,P]     Damp
               ***  Starting incremental Fock matrix formation  ***
  0   -701.1511611440   0.000000000000 0.03278410  0.00049473  0.3421834 0.7000
  1   -701.2005521478  -0.049391003843 0.02971481  0.00044795  0.2344174 0.7000
                               ***Turning on DIIS***
  2   -701.2289838825  -0.028431734691 0.02475338  0.00034514  0.1624630 0.7000
  3   -701.2475728683  -0.018588985822 0.02060181  0.00027111  0.1119985 0.7000
  4   -701.2606035339  -0.013030665604 0.05475407  0.00071338  0.0773543 0.0000
                      *** Initiating the SOSCF procedure ***
                           *** Shutting down DIIS ***
                      *** Re-Reading the Fockian *** 
                      *** Removing any level shift *** 
ITER      Energy       Delta-E        Grad      Rot      Max-DP    RMS-DP
  5   -701.29197378  -0.0313702472  0.001355  0.001355  0.006466  0.000074
               *** Restarting incremental Fock matrix formation ***
  6   -701.29211381  -0.0001400293  0.000758  0.001676  0.004055  0.000045
  7   -701.29215360  -0.0000397850  0.000350  0.001613  0.003221  0.000035
  8   -701.29216224  -0.0000086396  0.000152  0.000291  0.000826  0.000010
  9   -701.29216462  -0.0000023895  0.000084  0.000100  0.000542  0.000006
 10   -701.29216487  -0.0000002423  0.000028  0.000051  0.000206  0.000002
 11   -701.29216500  -0.0000001326  0.000008  0.000027  0.000022  0.000000
 12   -701.29216500  -0.0000000036  0.000006  0.000006  0.000022  0.000000
 13   -701.29216501  -0.0000000034  0.000002  0.000004  0.000006  0.000000
 14   -701.29216501   0.0000000001  0.000002  0.000002  0.000003  0.000000
                  ***Gradient check signals convergence***
              ***Rediagonalizing the Fockian in SOSCF/NRSCF***

               *****************************************************
               *                     SUCCESS                       *
               *           SCF CONVERGED AFTER  15 CYCLES          *
               *****************************************************

Old exchange energy                            =    -27.829641675 Eh
New exchange energy                            =    -27.829641821 Eh
Exchange energy change after final integration =     -0.000000146 Eh
Total energy after final integration           =   -701.292165153 Eh
Final COS-X integration done in                =    33.947 sec

----------------
TOTAL SCF ENERGY
----------------

Total Energy       :         -701.29216515 Eh          -19083.12998 eV

Components:
Nuclear Repulsion  :          921.49965228 Eh           25075.28034 eV
Electronic Energy  :        -1622.79181744 Eh          -44158.41032 eV
One Electron Energy:        -2770.76263093 Eh          -75396.28426 eV
Two Electron Energy:         1147.97081349 Eh           31237.87394 eV
Max COSX asymmetry :            0.00000071 Eh               0.00002 eV

Virial components:
Potential Energy   :        -1399.24891094 Eh          -38075.49859 eV
Kinetic Energy     :          697.95674579 Eh           18992.36861 eV
Virial Ratio       :            2.00477883


DFT components:
N(Alpha)           :       50.000012081351 electrons
N(Beta)            :       50.000012081351 electrons
N(Total)           :      100.000024162701 electrons
E(X)               :      -60.043962005265 Eh       
E(C)               :       -4.270867625351 Eh       
E(XC)              :      -64.314829630617 Eh       
DFET-embed. en.    :        0.000000000000 Eh       

---------------
SCF CONVERGENCE
---------------

  Last Energy change         ...   -1.5348e-11  Tolerance :   1.0000e-09
  Last MAX-Density change    ...    2.9976e-15  Tolerance :   1.0000e-08
  Last RMS-Density change    ...    1.3581e-17  Tolerance :   1.0000e-09
  Last Orbital Gradient      ...    2.8231e-07  Tolerance :   2.0000e-06
  Last Orbital Rotation      ...    8.2583e-07  Tolerance :   2.0000e-06

             **** THE GBW FILE WAS UPDATED (GGG-H_tt_003_OptFreq.gbw) ****
             **** DENSITY GGG-H_tt_003_OptFreq.scfp WAS UPDATED ****
             **** ENERGY FILE WAS UPDATED (GGG-H_tt_003_OptFreq.en.tmp) ****
             **** THE GBW FILE WAS UPDATED (GGG-H_tt_003_OptFreq.gbw) ****
             **** DENSITY GGG-H_tt_003_OptFreq.scfp WAS UPDATED ****
----------------
ORBITAL ENERGIES
----------------

  NO   OCC          E(Eh)            E(eV) 
   0   2.0000     -19.405509      -528.0507 
   1   2.0000     -19.365323      -526.9572 
   2   2.0000     -19.359277      -526.7927 
   3   2.0000     -19.337714      -526.2060 
   4   2.0000     -14.679284      -399.4436 
   5   2.0000     -14.616969      -397.7479 
   6   2.0000     -14.596995      -397.2044 
   7   2.0000     -10.570144      -287.6282 
   8   2.0000     -10.559510      -287.3389 
   9   2.0000     -10.535036      -286.6729 
  10   2.0000     -10.516767      -286.1758 
  11   2.0000     -10.476680      -285.0849 
  12   2.0000     -10.474071      -285.0140 
  13   2.0000      -1.391435       -37.8629 
  14   2.0000      -1.356439       -36.9106 
  15   2.0000      -1.325854       -36.0783 
  16   2.0000      -1.303277       -35.4640 
  17   2.0000      -1.276795       -34.7434 
  18   2.0000      -1.232502       -33.5381 
  19   2.0000      -1.209344       -32.9079 
  20   2.0000      -1.061111       -28.8743 
  21   2.0000      -1.025043       -27.8928 
  22   2.0000      -0.987200       -26.8631 
  23   2.0000      -0.895152       -24.3583 
  24   2.0000      -0.884170       -24.0595 
  25   2.0000      -0.874090       -23.7852 
  26   2.0000      -0.856291       -23.3009 
  27   2.0000      -0.851866       -23.1804 
  28   2.0000      -0.811950       -22.0943 
  29   2.0000      -0.807259       -21.9666 
  30   2.0000      -0.781091       -21.2546 
  31   2.0000      -0.767450       -20.8834 
  32   2.0000      -0.754943       -20.5431 
  33   2.0000      -0.736993       -20.0546 
  34   2.0000      -0.736640       -20.0450 
  35   2.0000      -0.723201       -19.6793 
  36   2.0000      -0.703380       -19.1399 
  37   2.0000      -0.688331       -18.7304 
  38   2.0000      -0.679526       -18.4908 
  39   2.0000      -0.670550       -18.2466 
  40   2.0000      -0.664514       -18.0823 
  41   2.0000      -0.652059       -17.7434 
  42   2.0000      -0.638398       -17.3717 
  43   2.0000      -0.634117       -17.2552 
  44   2.0000      -0.582078       -15.8392 
  45   2.0000      -0.564652       -15.3650 
  46   2.0000      -0.553064       -15.0496 
  47   2.0000      -0.548842       -14.9347 
  48   2.0000      -0.513878       -13.9833 
  49   2.0000      -0.511601       -13.9214 
  50   0.0000      -0.085676        -2.3314 
  51   0.0000      -0.077172        -2.1000 
  52   0.0000      -0.063472        -1.7271 
  53   0.0000      -0.055599        -1.5129 
  54   0.0000      -0.041892        -1.1399 
  55   0.0000      -0.008307        -0.2260 
  56   0.0000       0.006468         0.1760 
  57   0.0000       0.013077         0.3559 
  58   0.0000       0.019779         0.5382 
  59   0.0000       0.022426         0.6103 
  60   0.0000       0.029998         0.8163 
  61   0.0000       0.053436         1.4541 
  62   0.0000       0.062641         1.7045 
  63   0.0000       0.065722         1.7884 
  64   0.0000       0.073794         2.0080 
  65   0.0000       0.076461         2.0806 
  66   0.0000       0.089740         2.4420 
  67   0.0000       0.091971         2.5026 
  68   0.0000       0.102078         2.7777 
  69   0.0000       0.104299         2.8381 
  70   0.0000       0.118845         3.2339 
  71   0.0000       0.130084         3.5398 
  72   0.0000       0.139176         3.7872 
  73   0.0000       0.151374         4.1191 
  74   0.0000       0.164237         4.4691 
  75   0.0000       0.172827         4.7029 
  76   0.0000       0.176816         4.8114 
  77   0.0000       0.187309         5.0969 
  78   0.0000       0.193440         5.2638 
  79   0.0000       0.202399         5.5075 
  80   0.0000       0.212473         5.7817 
  81   0.0000       0.221631         6.0309 
  82   0.0000       0.234899         6.3919 
  83   0.0000       0.245281         6.6744 
  84   0.0000       0.256320         6.9748 
  85   0.0000       0.267702         7.2845 
  86   0.0000       0.273807         7.4507 
  87   0.0000       0.285364         7.7652 
  88   0.0000       0.288762         7.8576 
  89   0.0000       0.293406         7.9840 
  90   0.0000       0.301079         8.1928 
  91   0.0000       0.316353         8.6084 
  92   0.0000       0.318950         8.6791 
  93   0.0000       0.322274         8.7695 
  94   0.0000       0.329006         8.9527 
  95   0.0000       0.337156         9.1745 
  96   0.0000       0.340108         9.2548 
  97   0.0000       0.343219         9.3395 
  98   0.0000       0.350708         9.5432 
  99   0.0000       0.356423         9.6988 
 100   0.0000       0.360206         9.8017 
 101   0.0000       0.367677        10.0050 
 102   0.0000       0.376286        10.2393 
 103   0.0000       0.381400        10.3784 
 104   0.0000       0.384742        10.4694 
 105   0.0000       0.391078        10.6418 
 106   0.0000       0.401191        10.9170 
 107   0.0000       0.411189        11.1890 
 108   0.0000       0.412693        11.2300 
 109   0.0000       0.418529        11.3888 
 110   0.0000       0.426719        11.6116 
 111   0.0000       0.440968        11.9993 
 112   0.0000       0.463957        12.6249 
 113   0.0000       0.465685        12.6719 
 114   0.0000       0.476582        12.9685 
 115   0.0000       0.480246        13.0682 
 116   0.0000       0.487656        13.2698 
 117   0.0000       0.504991        13.7415 
 118   0.0000       0.507572        13.8117 
 119   0.0000       0.515288        14.0217 
 120   0.0000       0.527165        14.3449 
 121   0.0000       0.540636        14.7115 
 122   0.0000       0.552301        15.0289 
 123   0.0000       0.565171        15.3791 
 124   0.0000       0.565513        15.3884 
 125   0.0000       0.582913        15.8619 
 126   0.0000       0.593412        16.1476 
 127   0.0000       0.604215        16.4415 
 128   0.0000       0.606295        16.4981 
 129   0.0000       0.629440        17.1279 
 130   0.0000       0.646507        17.5923 
 131   0.0000       0.649170        17.6648 
 132   0.0000       0.671673        18.2772 
 133   0.0000       0.684544        18.6274 
 134   0.0000       0.695549        18.9269 
 135   0.0000       0.719243        19.5716 
 136   0.0000       0.724303        19.7093 
 137   0.0000       0.733158        19.9502 
 138   0.0000       0.743073        20.2200 
 139   0.0000       0.749627        20.3984 
 140   0.0000       0.756649        20.5895 
 141   0.0000       0.767455        20.8835 
 142   0.0000       0.782474        21.2922 
 143   0.0000       0.796689        21.6790 
 144   0.0000       0.803960        21.8769 
 145   0.0000       0.809411        22.0252 
 146   0.0000       0.819739        22.3062 
 147   0.0000       0.830064        22.5872 
 148   0.0000       0.843806        22.9611 
 149   0.0000       0.854763        23.2593 
 150   0.0000       0.867520        23.6064 
 151   0.0000       0.872191        23.7335 
 152   0.0000       0.886150        24.1134 
 153   0.0000       0.893745        24.3201 
 154   0.0000       0.902792        24.5662 
 155   0.0000       0.911753        24.8101 
 156   0.0000       0.914927        24.8964 
 157   0.0000       0.935151        25.4468 
 158   0.0000       0.945058        25.7163 
 159   0.0000       0.958250        26.0753 
 160   0.0000       0.964741        26.2519 
 161   0.0000       0.980532        26.6816 
 162   0.0000       0.993608        27.0374 
 163   0.0000       1.006484        27.3878 
 164   0.0000       1.011825        27.5332 
 165   0.0000       1.019940        27.7540 
 166   0.0000       1.023963        27.8635 
 167   0.0000       1.030598        28.0440 
 168   0.0000       1.035471        28.1766 
 169   0.0000       1.048314        28.5261 
 170   0.0000       1.053402        28.6645 
 171   0.0000       1.071499        29.1570 
 172   0.0000       1.077847        29.3297 
 173   0.0000       1.091316        29.6962 
 174   0.0000       1.110877        30.2285 
 175   0.0000       1.124757        30.6062 
 176   0.0000       1.137998        30.9665 
 177   0.0000       1.143209        31.1083 
 178   0.0000       1.150790        31.3146 
 179   0.0000       1.160007        31.5654 
 180   0.0000       1.162519        31.6338 
 181   0.0000       1.165957        31.7273 
 182   0.0000       1.185870        32.2692 
 183   0.0000       1.196231        32.5511 
 184   0.0000       1.206441        32.8289 
 185   0.0000       1.213096        33.0100 
 186   0.0000       1.236845        33.6563 
 187   0.0000       1.238513        33.7016 
 188   0.0000       1.256907        34.2022 
 189   0.0000       1.271164        34.5901 
 190   0.0000       1.283962        34.9384 
 191   0.0000       1.286967        35.0202 
 192   0.0000       1.302714        35.4486 
 193   0.0000       1.309539        35.6344 
 194   0.0000       1.315856        35.8063 
 195   0.0000       1.321380        35.9566 
 196   0.0000       1.355567        36.8868 
 197   0.0000       1.368295        37.2332 
 198   0.0000       1.369888        37.2765 
 199   0.0000       1.375791        37.4372 
 200   0.0000       1.393949        37.9313 
 201   0.0000       1.403112        38.1806 
 202   0.0000       1.412007        38.4227 
 203   0.0000       1.425647        38.7938 
 204   0.0000       1.429825        38.9075 
 205   0.0000       1.436825        39.0980 
 206   0.0000       1.443671        39.2843 
 207   0.0000       1.446980        39.3743 
 208   0.0000       1.466237        39.8983 
 209   0.0000       1.480282        40.2805 
 210   0.0000       1.505265        40.9603 
 211   0.0000       1.510393        41.0999 
 212   0.0000       1.524949        41.4960 
 213   0.0000       1.529903        41.6308 
 214   0.0000       1.554096        42.2891 
 215   0.0000       1.560554        42.4648 
 216   0.0000       1.572047        42.7776 
 217   0.0000       1.595439        43.4141 
 218   0.0000       1.597450        43.4688 
 219   0.0000       1.608259        43.7629 
 220   0.0000       1.638175        44.5770 
 221   0.0000       1.644815        44.7577 
 222   0.0000       1.662510        45.2392 
 223   0.0000       1.667693        45.3802 
 224   0.0000       1.695677        46.1417 
 225   0.0000       1.700595        46.2756 
 226   0.0000       1.718744        46.7694 
 227   0.0000       1.742830        47.4248 
 228   0.0000       1.751486        47.6604 
 229   0.0000       1.761684        47.9379 
 230   0.0000       1.771880        48.2153 
 231   0.0000       1.794493        48.8306 
 232   0.0000       1.823566        49.6217 
 233   0.0000       1.832072        49.8532 
 234   0.0000       1.851781        50.3895 
 235   0.0000       1.873051        50.9683 
 236   0.0000       1.896247        51.5995 
 237   0.0000       1.905079        51.8398 
 238   0.0000       1.918372        52.2016 
 239   0.0000       1.931254        52.5521 
 240   0.0000       1.966319        53.5063 
 241   0.0000       1.978271        53.8315 
 242   0.0000       1.982545        53.9478 
 243   0.0000       1.994857        54.2828 
 244   0.0000       2.019162        54.9442 
 245   0.0000       2.051236        55.8170 
 246   0.0000       2.057980        56.0005 
 247   0.0000       2.082710        56.6734 
 248   0.0000       2.101499        57.1847 
 249   0.0000       2.111272        57.4506 
 250   0.0000       2.121539        57.7300 
 251   0.0000       2.145985        58.3952 
 252   0.0000       2.175612        59.2014 
 253   0.0000       2.178424        59.2779 
 254   0.0000       2.213496        60.2323 
 255   0.0000       2.229408        60.6653 
 256   0.0000       2.233616        60.7798 
 257   0.0000       2.242699        61.0269 
 258   0.0000       2.248992        61.1982 
 259   0.0000       2.284841        62.1737 
 260   0.0000       2.312093        62.9152 
 261   0.0000       2.320125        63.1338 
 262   0.0000       2.339708        63.6667 
 263   0.0000       2.371050        64.5195 
 264   0.0000       2.393202        65.1224 
 265   0.0000       2.407646        65.5154 
 266   0.0000       2.422372        65.9161 
 267   0.0000       2.458337        66.8948 
 268   0.0000       2.475366        67.3581 
 269   0.0000       2.486486        67.6607 
 270   0.0000       2.503054        68.1116 
 271   0.0000       2.519375        68.5557 
 272   0.0000       2.527992        68.7902 
 273   0.0000       2.535622        68.9978 
 274   0.0000       2.554493        69.5113 
 275   0.0000       2.556608        69.5688 
 276   0.0000       2.578528        70.1653 
 277   0.0000       2.582030        70.2606 
 278   0.0000       2.588056        70.4246 
 279   0.0000       2.606523        70.9271 
 280   0.0000       2.621180        71.3259 
 281   0.0000       2.636287        71.7370 
 282   0.0000       2.651615        72.1541 
 283   0.0000       2.661550        72.4245 
 284   0.0000       2.680971        72.9529 
 285   0.0000       2.693588        73.2963 
 286   0.0000       2.708191        73.6936 
 287   0.0000       2.717317        73.9420 
 288   0.0000       2.730441        74.2991 
 289   0.0000       2.751393        74.8692 
 290   0.0000       2.774696        75.5033 
 291   0.0000       2.787107        75.8410 
 292   0.0000       2.790471        75.9326 
 293   0.0000       2.810461        76.4765 
 294   0.0000       2.820244        76.7427 
 295   0.0000       2.841209        77.3132 
 296   0.0000       2.844199        77.3946 
 297   0.0000       2.862070        77.8809 
 298   0.0000       2.878102        78.3171 
 299   0.0000       2.892276        78.7028 
 300   0.0000       2.900320        78.9217 
 301   0.0000       2.916797        79.3701 
 302   0.0000       2.929629        79.7192 
 303   0.0000       2.932726        79.8035 
 304   0.0000       2.944919        80.1353 
 305   0.0000       2.948838        80.2420 
 306   0.0000       2.963591        80.6434 
 307   0.0000       2.976001        80.9811 
 308   0.0000       2.987519        81.2945 
 309   0.0000       3.001515        81.6754 
 310   0.0000       3.003574        81.7314 
 311   0.0000       3.012231        81.9670 
 312   0.0000       3.028940        82.4216 
 313   0.0000       3.036071        82.6157 
 314   0.0000       3.040975        82.7491 
 315   0.0000       3.055142        83.1347 
 316   0.0000       3.063159        83.3528 
 317   0.0000       3.066413        83.4413 
 318   0.0000       3.082043        83.8667 
 319   0.0000       3.091725        84.1301 
 320   0.0000       3.095128        84.2227 
 321   0.0000       3.106412        84.5298 
 322   0.0000       3.117674        84.8362 
 323   0.0000       3.126855        85.0861 
 324   0.0000       3.135560        85.3229 
 325   0.0000       3.144433        85.5644 
 326   0.0000       3.158775        85.9547 
 327   0.0000       3.161601        86.0315 
 328   0.0000       3.171785        86.3087 
 329   0.0000       3.184692        86.6599 
 330   0.0000       3.204751        87.2057 
 331   0.0000       3.209493        87.3348 
 332   0.0000       3.216777        87.5330 
 333   0.0000       3.231022        87.9206 
 334   0.0000       3.240154        88.1691 
 335   0.0000       3.242776        88.2404 
 336   0.0000       3.258148        88.6587 
 337   0.0000       3.269096        88.9566 
 338   0.0000       3.282524        89.3220 
 339   0.0000       3.293966        89.6334 
 340   0.0000       3.317654        90.2780 
 341   0.0000       3.324535        90.4652 
 342   0.0000       3.329133        90.5903 
 343   0.0000       3.336556        90.7923 
 344   0.0000       3.349310        91.1394 
 345   0.0000       3.350562        91.1734 
 346   0.0000       3.363327        91.5208 
 347   0.0000       3.380150        91.9786 
 348   0.0000       3.395145        92.3866 
 349   0.0000       3.402272        92.5805 
 350   0.0000       3.406894        92.7063 
 351   0.0000       3.417935        93.0067 
 352   0.0000       3.435271        93.4785 
 353   0.0000       3.438637        93.5701 
 354   0.0000       3.443990        93.7157 
 355   0.0000       3.455901        94.0399 
 356   0.0000       3.460871        94.1751 
 357   0.0000       3.465427        94.2991 
 358   0.0000       3.473266        94.5124 
 359   0.0000       3.508013        95.4579 
 360   0.0000       3.524137        95.8967 
 361   0.0000       3.528762        96.0225 
 362   0.0000       3.542243        96.3893 
 363   0.0000       3.552242        96.6614 
 364   0.0000       3.562817        96.9492 
 365   0.0000       3.567591        97.0791 
 366   0.0000       3.570904        97.1692 
 367   0.0000       3.579031        97.3904 
 368   0.0000       3.603281        98.0503 
 369   0.0000       3.608356        98.1884 
 370   0.0000       3.625436        98.6531 
 371   0.0000       3.632910        98.8565 
 372   0.0000       3.646255        99.2197 
 373   0.0000       3.658404        99.5502 
 374   0.0000       3.673594        99.9636 
 375   0.0000       3.684080       100.2489 
 376   0.0000       3.689755       100.4034 
 377   0.0000       3.707172       100.8773 
 378   0.0000       3.716221       101.1235 
 379   0.0000       3.727484       101.4300 
 380   0.0000       3.748539       102.0029 
 381   0.0000       3.764132       102.4273 
 382   0.0000       3.772095       102.6439 
 383   0.0000       3.778469       102.8174 
 384   0.0000       3.800942       103.4289 
 385   0.0000       3.803740       103.5050 
 386   0.0000       3.806421       103.5780 
 387   0.0000       3.840337       104.5009 
 388   0.0000       3.850032       104.7647 
 389   0.0000       3.853912       104.8703 
 390   0.0000       3.871453       105.3476 
 391   0.0000       3.884412       105.7002 
 392   0.0000       3.892691       105.9255 
 393   0.0000       3.906439       106.2996 
 394   0.0000       3.923365       106.7602 
 395   0.0000       3.943854       107.3177 
 396   0.0000       3.955756       107.6416 
 397   0.0000       3.972646       108.1012 
 398   0.0000       3.983216       108.3888 
 399   0.0000       3.996458       108.7491 
 400   0.0000       4.013312       109.2078 
 401   0.0000       4.018738       109.3554 
 402   0.0000       4.036642       109.8426 
 403   0.0000       4.045107       110.0730 
 404   0.0000       4.064986       110.6139 
 405   0.0000       4.072838       110.8275 
 406   0.0000       4.097246       111.4917 
 407   0.0000       4.112209       111.8989 
 408   0.0000       4.118380       112.0668 
 409   0.0000       4.126248       112.2809 
 410   0.0000       4.144228       112.7702 
 411   0.0000       4.156261       113.0976 
 412   0.0000       4.165410       113.3466 
 413   0.0000       4.173276       113.5606 
 414   0.0000       4.187558       113.9492 
 415   0.0000       4.199531       114.2751 
 416   0.0000       4.202519       114.3563 
 417   0.0000       4.211381       114.5975 
 418   0.0000       4.232890       115.1828 
 419   0.0000       4.250365       115.6583 
 420   0.0000       4.256929       115.8369 
 421   0.0000       4.268344       116.1475 
 422   0.0000       4.277494       116.3965 
 423   0.0000       4.303121       117.0939 
 424   0.0000       4.315338       117.4263 
 425   0.0000       4.337373       118.0259 
 426   0.0000       4.338957       118.0690 
 427   0.0000       4.353687       118.4698 
 428   0.0000       4.370424       118.9253 
 429   0.0000       4.390902       119.4825 
 430   0.0000       4.423789       120.3774 
 431   0.0000       4.433777       120.6492 
 432   0.0000       4.462782       121.4385 
 433   0.0000       4.470752       121.6553 
 434   0.0000       4.487183       122.1025 
 435   0.0000       4.500925       122.4764 
 436   0.0000       4.525178       123.1363 
 437   0.0000       4.538289       123.4931 
 438   0.0000       4.561549       124.1261 
 439   0.0000       4.584545       124.7518 
 440   0.0000       4.599514       125.1591 
 441   0.0000       4.615488       125.5938 
 442   0.0000       4.628073       125.9363 
 443   0.0000       4.654855       126.6650 
 444   0.0000       4.671472       127.1172 
 445   0.0000       4.689566       127.6096 
 446   0.0000       4.709908       128.1631 
 447   0.0000       4.723829       128.5419 
 448   0.0000       4.732970       128.7907 
 449   0.0000       4.747251       129.1793 
 450   0.0000       4.754150       129.3670 
 451   0.0000       4.780327       130.0793 
 452   0.0000       4.787538       130.2755 
 453   0.0000       4.807439       130.8171 
 454   0.0000       4.824995       131.2948 
 455   0.0000       4.853138       132.0606 
 456   0.0000       4.862971       132.3282 
 457   0.0000       4.885114       132.9307 
 458   0.0000       4.901416       133.3743 
 459   0.0000       4.938191       134.3750 
 460   0.0000       4.955984       134.8592 
 461   0.0000       4.960172       134.9731 
 462   0.0000       4.973934       135.3476 
 463   0.0000       4.995237       135.9273 
 464   0.0000       5.024031       136.7108 
 465   0.0000       5.032424       136.9392 
 466   0.0000       5.058689       137.6539 
 467   0.0000       5.070332       137.9708 
 468   0.0000       5.091111       138.5362 
 469   0.0000       5.108146       138.9997 
 470   0.0000       5.117742       139.2608 
 471   0.0000       5.143955       139.9741 
 472   0.0000       5.158870       140.3800 
 473   0.0000       5.161043       140.4391 
 474   0.0000       5.173360       140.7743 
 475   0.0000       5.185253       141.0979 
 476   0.0000       5.193099       141.3114 
 477   0.0000       5.209352       141.7537 
 478   0.0000       5.218285       141.9968 
 479   0.0000       5.232585       142.3859 
 480   0.0000       5.249308       142.8409 
 481   0.0000       5.253922       142.9665 
 482   0.0000       5.265211       143.2737 
 483   0.0000       5.281119       143.7065 
 484   0.0000       5.308029       144.4388 
 485   0.0000       5.337771       145.2481 
 486   0.0000       5.347577       145.5150 
 487   0.0000       5.350920       145.6059 
 488   0.0000       5.360176       145.8578 
 489   0.0000       5.395754       146.8259 
 490   0.0000       5.415445       147.3617 
 491   0.0000       5.454885       148.4350 
 492   0.0000       5.472865       148.9242 
 493   0.0000       5.477906       149.0614 
 494   0.0000       5.505614       149.8154 
 495   0.0000       5.515315       150.0794 
 496   0.0000       5.532785       150.5547 
 497   0.0000       5.554060       151.1337 
 498   0.0000       5.574880       151.7002 
 499   0.0000       5.581599       151.8830 
 500   0.0000       5.592323       152.1748 
 501   0.0000       5.596888       152.2991 
 502   0.0000       5.613219       152.7434 
 503   0.0000       5.627192       153.1237 
 504   0.0000       5.650408       153.7554 
 505   0.0000       5.670625       154.3055 
 506   0.0000       5.692697       154.9061 
 507   0.0000       5.703152       155.1907 
 508   0.0000       5.734493       156.0435 
 509   0.0000       5.791002       157.5812 
 510   0.0000       5.811382       158.1357 
 511   0.0000       5.833256       158.7310 
 512   0.0000       5.858659       159.4222 
 513   0.0000       5.878752       159.9690 
 514   0.0000       5.923046       161.1743 
 515   0.0000       5.951656       161.9528 
 516   0.0000       5.960375       162.1901 
 517   0.0000       5.993206       163.0834 
 518   0.0000       6.016674       163.7220 
 519   0.0000       6.080080       165.4474 
 520   0.0000       6.103771       166.0921 
 521   0.0000       6.113902       166.3677 
 522   0.0000       6.121286       166.5687 
 523   0.0000       6.175870       168.0540 
 524   0.0000       6.238804       169.7665 
 525   0.0000       6.298756       171.3979 
 526   0.0000       6.327334       172.1755 
 527   0.0000       6.333415       172.3410 
 528   0.0000       6.385110       173.7477 
 529   0.0000       6.414304       174.5421 
 530   0.0000       6.418747       174.6630 
 531   0.0000       6.456258       175.6837 
 532   0.0000       6.474991       176.1935 
 533   0.0000       6.480482       176.3429 
 534   0.0000       6.498088       176.8220 
 535   0.0000       6.562457       178.5735 
 536   0.0000       6.596438       179.4982 
 537   0.0000       6.599194       179.5732 
 538   0.0000       6.632860       180.4893 
 539   0.0000       6.696366       182.2174 
 540   0.0000       6.702522       182.3849 
 541   0.0000       6.720855       182.8838 
 542   0.0000       6.743542       183.5011 
 543   0.0000       6.750803       183.6987 
 544   0.0000       6.770917       184.2460 
 545   0.0000       6.851959       186.4513 
 546   0.0000       6.862700       186.7436 
 547   0.0000       6.881128       187.2450 
 548   0.0000       6.902392       187.8236 
 549   0.0000       7.039109       191.5439 
 550   0.0000       7.056895       192.0279 
 551   0.0000       7.075515       192.5346 
 552   0.0000       7.103540       193.2971 
 553   0.0000       7.149089       194.5366 
 554   0.0000       7.170375       195.1158 
 555   0.0000       7.224609       196.5916 
 556   0.0000       7.389810       201.0869 
 557   0.0000       7.534217       205.0165 
 558   0.0000      23.112848       628.9326 
 559   0.0000      23.205888       631.4643 
 560   0.0000      23.217618       631.7835 
 561   0.0000      23.271803       633.2579 
 562   0.0000      23.351087       635.4154 
 563   0.0000      23.384752       636.3314 
 564   0.0000      32.710437       890.0962 
 565   0.0000      32.798313       892.4875 
 566   0.0000      32.842053       893.6777 
 567   0.0000      43.878827      1194.0036 
 568   0.0000      43.927630      1195.3316 
 569   0.0000      43.970565      1196.4999 
 570   0.0000      44.042059      1198.4454 

                    ********************************
                    * MULLIKEN POPULATION ANALYSIS *
                    ********************************

-----------------------
MULLIKEN ATOMIC CHARGES
-----------------------
   0 N :   -0.186907
   1 H :    0.178945
   2 C :   -0.117137
   3 C :    0.341397
   4 H :    0.146738
   5 H :    0.158642
   6 O :   -0.384204
   7 C :    0.262407
   8 C :   -0.079517
   9 O :   -0.353517
  10 N :   -0.231295
  11 H :    0.157269
  12 H :    0.156597
  13 H :    0.202238
  14 C :    0.227676
  15 C :   -0.145873
  16 O :   -0.343442
  17 H :    0.159317
  18 H :    0.176299
  19 O :   -0.218717
  20 H :    0.271550
  21 N :   -0.086512
  22 H :    0.238994
  23 H :    0.237575
  24 H :    0.231475
Sum of atomic charges:    1.0000000

--------------------------------
MULLIKEN REDUCED ORBITAL CHARGES
--------------------------------
  0 N s       :     3.406766  s :     3.406766
      pz      :     1.136549  p :     3.721214
      px      :     1.456525
      py      :     1.128141
      dz2     :     0.014418  d :     0.055410
      dxz     :     0.011628
      dyz     :     0.014426
      dx2y2   :     0.009419
      dxy     :     0.005519
      f0      :     0.000515  f :     0.003517
      f+1     :     0.000638
      f-1     :     0.000585
      f+2     :     0.000539
      f-2     :     0.000637
      f+3     :     0.000336
      f-3     :     0.000267
  1 H s       :     0.753530  s :     0.753530
      pz      :     0.016316  p :     0.062249
      px      :     0.022598
      py      :     0.023335
      dz2     :     0.000544  d :     0.005277
      dxz     :     0.000224
      dyz     :     0.001467
      dx2y2   :     0.001454
      dxy     :     0.001588
  2 C s       :     3.202079  s :     3.202079
      pz      :     0.849193  p :     2.797565
      px      :     0.808433
      py      :     1.139939
      dz2     :     0.024692  d :     0.109983
      dxz     :     0.020560
      dyz     :     0.025712
      dx2y2   :     0.028061
      dxy     :     0.010958
      f0      :     0.001499  f :     0.007511
      f+1     :     0.001268
      f-1     :     0.000613
      f+2     :     0.001636
      f-2     :     0.000984
      f+3     :     0.000785
      f-3     :     0.000726
  3 C s       :     3.111469  s :     3.111469
      pz      :     0.723674  p :     2.256826
      px      :     0.822564
      py      :     0.710589
      dz2     :     0.022369  d :     0.265648
      dxz     :     0.025306
      dyz     :     0.075709
      dx2y2   :     0.072296
      dxy     :     0.069968
      f0      :     0.002055  f :     0.024660
      f+1     :     0.001729
      f-1     :     0.003010
      f+2     :     0.002876
      f-2     :     0.003677
      f+3     :     0.003907
      f-3     :     0.007405
  4 H s       :     0.817535  s :     0.817535
      pz      :     0.012717  p :     0.033638
      px      :     0.008539
      py      :     0.012382
      dz2     :     0.000680  d :     0.002089
      dxz     :     0.000448
      dyz     :     0.000266
      dx2y2   :     0.000372
      dxy     :     0.000323
  5 H s       :     0.803670  s :     0.803670
      pz      :     0.009579  p :     0.035577
      px      :     0.008089
      py      :     0.017909
      dz2     :     0.000325  d :     0.002111
      dxz     :     0.000187
      dyz     :     0.000597
      dx2y2   :     0.000323
      dxy     :     0.000678
  6 O s       :     3.806319  s :     3.806319
      pz      :     1.523682  p :     4.547449
      px      :     1.632141
      py      :     1.391625
      dz2     :     0.002990  d :     0.028658
      dxz     :     0.001651
      dyz     :     0.007957
      dx2y2   :     0.008095
      dxy     :     0.007965
      f0      :     0.000171  f :     0.001778
      f+1     :     0.000055
      f-1     :     0.000190
      f+2     :     0.000224
      f-2     :     0.000178
      f+3     :     0.000449
      f-3     :     0.000511
[...]
     53       0.000218  -0.428357   0.002774   0.001378   0.009466   0.001489
     54      -0.000138  -0.110614   0.000997   0.000357   0.002356  -0.000775
     55       0.000229   0.210088  -0.001790  -0.000482  -0.000912   0.002785
     56      -0.000672  -0.542985   0.003875   0.001335   0.003151  -0.004918
     57      -0.000063  -0.000019  -0.000027   0.000333  -0.000214   0.000097
     58       0.000281  -0.000032   0.000017   0.000633  -0.000146  -0.000040
     59       0.000152  -0.000016  -0.000025  -0.000059  -0.000072  -0.000012
     60       0.002483   0.000085   0.000165   0.003720   0.001238  -0.001004
     61       0.000578  -0.000147  -0.000402   0.001395  -0.001859   0.001696
     62       0.001940  -0.000009   0.000252   0.002430   0.000378   0.000152
     63      -0.000006  -0.001016   0.000017   0.000016  -0.035675   0.042033
     64       0.000035  -0.001324   0.000051  -0.000095  -0.044033  -0.064044
     65      -0.000174  -0.000508  -0.000052   0.000338  -0.030517   0.001776
     66       0.000273   0.005770   0.000139  -0.001272  -0.007616  -0.000747
     67      -0.000508   0.002594  -0.000168   0.001125  -0.008777  -0.004411
     68       0.002659  -0.010464   0.001140  -0.005319   0.005345  -0.033054
     69      -0.000157   0.001459  -0.000473   0.000354   0.351259   0.090279
     70      -0.000162   0.016844  -0.000488   0.000693   0.810532   0.181656
     71      -0.000040   0.012869  -0.000259   0.000415   0.395363   0.096609
     72      -0.000100   0.003834  -0.000223   0.000455   0.164448  -0.655822
     73       0.000083  -0.004401   0.000061  -0.000495  -0.176133   0.710184
     74       0.000066  -0.000117   0.000013   0.000077   0.019767  -0.089455
                 72         73         74    
      0       0.002045   0.018278  -0.000013
      1       0.007837   0.068674  -0.000615
      2      -0.001634  -0.013889  -0.000373
      3      -0.025685  -0.232105   0.000754
      4      -0.107110  -0.941833   0.002686
      5       0.024093   0.202293  -0.001010
      6      -0.000127  -0.001122  -0.000239
      7       0.000104   0.000813   0.000476
      8       0.000136   0.000911   0.000158
      9       0.000028   0.000020   0.001473
     10      -0.000020  -0.000007  -0.002826
     11       0.000062   0.000125   0.000487
     12       0.000063   0.000562   0.002233
     13      -0.000552  -0.004532  -0.000442
     14      -0.000623  -0.005254   0.000387
     15      -0.000085  -0.001430   0.000854
     16      -0.000915  -0.008508   0.002448
     17       0.000494   0.005047   0.000817
     18      -0.000011  -0.000050  -0.000290
     19       0.000017   0.000072   0.001795
     20      -0.000039  -0.000009  -0.000317
     21      -0.000081  -0.000176   0.000311
     22       0.000309   0.000481   0.001467
     23      -0.000342  -0.001402   0.000464
     24      -0.001184   0.000229   0.000006
     25       0.001071   0.000017  -0.000045
     26      -0.000494   0.000305  -0.000022
     27      -0.000036  -0.000299  -0.000428
     28      -0.000148  -0.001038  -0.000807
     29      -0.000012  -0.000062   0.000110
     30      -0.037186   0.004224   0.000213
     31      -0.063373   0.007120   0.000071
     32       0.005545  -0.000901   0.000013
     33       0.009061  -0.001505  -0.000209
     34       0.000881  -0.000198  -0.000193
     35       0.000347  -0.000039   0.000144
     36      -0.000401  -0.000442   0.000052
     37       0.005841  -0.000593  -0.000072
     38       0.003063  -0.000293  -0.000493
     39       0.494847  -0.056505  -0.000913
     40       0.855402  -0.097158  -0.001938
     41      -0.070913   0.006219   0.000352
     42       0.001432  -0.000194  -0.000271
     43      -0.001070   0.000030  -0.000078
     44      -0.000196   0.000025   0.000056
     45      -0.000326   0.000011  -0.000023
     46      -0.000083  -0.000029  -0.000014
     47       0.000015  -0.000007   0.000044
     48       0.000831  -0.000062   0.000101
     49       0.000868  -0.000021   0.000049
     50      -0.000056  -0.000011  -0.000067
     51       0.001677  -0.000417  -0.000012
     52       0.002023   0.000036  -0.000200
     53       0.000639  -0.000075   0.000081
     54       0.000423   0.000005   0.000008
     55       0.000229   0.000053   0.000010
     56      -0.000082   0.000115  -0.000141
     57       0.000078   0.000073   0.030419
     58      -0.000142  -0.000178  -0.054483
     59      -0.000032  -0.000043  -0.000036
     60      -0.001305  -0.001264  -0.495088
     61       0.002167   0.002678   0.866506
     62       0.000159  -0.000230  -0.005847
     63      -0.000012  -0.000037  -0.000209
     64      -0.000335   0.000155   0.000126
     65      -0.000156  -0.000070  -0.000533
     66       0.000057   0.000481   0.002634
     67      -0.000106  -0.000596  -0.002300
     68       0.001113   0.001570   0.007968
     69       0.000762  -0.000156   0.000449
     70       0.003733  -0.001002   0.001188
     71       0.001719  -0.000422   0.000919
     72      -0.001539   0.000648   0.001383
     73       0.001671  -0.000783  -0.001418
     74      -0.000213   0.000049   0.000021


-----------
IR SPECTRUM
-----------

 Mode   freq       eps      Int      T**2         TX        TY        TZ
       cm**-1   L/(mol*cm) km/mol    a.u.
----------------------------------------------------------------------------
  6:     46.14   0.003100   15.66  0.020966  ( 0.144260 -0.000444 -0.012434)
  7:     65.84   0.003147   15.90  0.014917  (-0.048377 -0.073656  0.084567)
  8:     83.66   0.001675    8.47  0.006248  ( 0.043439  0.007963  0.065557)
  9:    109.41   0.001579    7.98  0.004505  ( 0.054575 -0.037293  0.011634)
 10:    123.67   0.002243   11.33  0.005659  (-0.042766 -0.009725  0.061118)
 11:    130.63   0.000181    0.92  0.000433  (-0.001936  0.019164  0.007871)
 12:    194.58   0.005264   26.60  0.008443  ( 0.013104 -0.019257  0.088882)
 13:    227.74   0.002625   13.27  0.003597  ( 0.029530  0.051372 -0.009259)
 14:    245.63   0.006610   33.40  0.008397  ( 0.003694 -0.002141 -0.091538)
 15:    296.80   0.003040   15.36  0.003196  ( 0.038797 -0.021241 -0.035209)
 16:    317.31   0.008707   44.00  0.008563  (-0.052968  0.035576 -0.067020)
 17:    329.43   0.002192   11.08  0.002076  (-0.017276 -0.004097  0.041964)
 18:    386.55   0.006647   33.59  0.005366  (-0.031618  0.028171  0.059770)
 19:    416.83   0.006529   32.99  0.004888  ( 0.054189 -0.044012 -0.003762)
 20:    437.74   0.021848  110.41  0.015575  ( 0.036802 -0.024345  0.116740)
 21:    452.77   0.003411   17.24  0.002351  (-0.041809  0.018039 -0.016660)
 22:    479.47   0.000255    1.29  0.000166  ( 0.008578  0.006152  0.007395)
 23:    526.72   0.018929   95.66  0.011215  ( 0.100572  0.033040  0.002950)
 24:    571.76   0.022180  112.09  0.012106  ( 0.007329  0.049913 -0.097779)
 25:    625.94   0.006747   34.10  0.003364  ( 0.013254  0.007377 -0.055978)
 26:    633.40   0.006434   32.51  0.003170  ( 0.053469  0.015173  0.008984)
 27:    639.55   0.000856    4.33  0.000418  (-0.007151  0.011298  0.015462)
 28:    699.81   0.000235    1.19  0.000105  (-0.004655  0.000141  0.009106)
 29:    742.31   0.001759    8.89  0.000739  ( 0.006419  0.001876  0.026354)
 30:    795.99   0.001509    7.63  0.000592  ( 0.010392 -0.016383 -0.014668)
 31:    868.11   0.001136    5.74  0.000408  (-0.009388  0.013901  0.011262)
 32:    883.68   0.001015    5.13  0.000358  ( 0.014889 -0.011107  0.003664)
 33:    927.42   0.002792   14.11  0.000940  (-0.023734 -0.013293 -0.014129)
 34:    938.94   0.005614   28.37  0.001866  (-0.000113 -0.010862  0.041807)
 35:   1009.44   0.000984    4.97  0.000304  (-0.016070  0.006018  0.003125)
 36:   1034.37   0.002635   13.32  0.000795  ( 0.012885 -0.021562  0.012809)
 37:   1051.16   0.000478    2.42  0.000142  (-0.008653  0.002639 -0.007748)
 38:   1076.86   0.002469   12.48  0.000716  (-0.004718  0.026191 -0.002718)
 39:   1121.23   0.001974    9.97  0.000549  ( 0.018318 -0.005246 -0.013649)
 40:   1134.55   0.001057    5.34  0.000291  ( 0.009373  0.008916  0.011104)
 41:   1147.94   0.005603   28.32  0.001523  ( 0.005204 -0.030830  0.023359)
 42:   1228.67   0.001769    8.94  0.000449  (-0.000983  0.015824  0.014068)
 43:   1257.14   0.006710   33.91  0.001666  (-0.015251 -0.010797  0.036285)
 44:   1270.07   0.008095   40.91  0.001989  ( 0.022765 -0.032163  0.020888)
 45:   1289.88   0.019003   96.03  0.004597  (-0.038342 -0.055075 -0.009700)
 46:   1319.96   0.011184   56.52  0.002644  (-0.028347  0.024527  0.035199)
 47:   1342.29   0.001711    8.65  0.000398  ( 0.000833 -0.004245 -0.019471)
 48:   1363.64   0.010095   51.01  0.002310  ( 0.016212  0.040973  0.019197)
 49:   1366.14   0.004685   23.68  0.001070  (-0.030942 -0.010542  0.001331)
 50:   1419.03   0.002008   10.15  0.000442  (-0.009298 -0.018847  0.000071)
 51:   1435.19   0.027140  137.15  0.005901  (-0.052616 -0.055654  0.005951)
 52:   1479.27   0.004151   20.98  0.000876  ( 0.006477  0.015585  0.024309)
 53:   1487.95   0.002206   11.15  0.000463  (-0.008230  0.016869 -0.010510)
 54:   1493.00   0.003241   16.38  0.000677  (-0.009752 -0.024036  0.002152)
 55:   1539.88   0.049499  250.15  0.010031  ( 0.099772  0.003487  0.008039)
 56:   1548.03   0.033597  169.78  0.006773  ( 0.002231 -0.038773 -0.072556)
 57:   1573.01   0.031130  157.32  0.006176  ( 0.072314 -0.030243 -0.005642)
 58:   1618.96   0.009710   49.07  0.001872  (-0.021957  0.037264  0.000939)
 59:   1693.17   0.023339  117.95  0.004302  (-0.037334  0.048971 -0.022576)
 60:   1785.16   0.013987   70.69  0.002445  (-0.040060 -0.026763  0.011140)
 61:   1790.40   0.052265  264.13  0.009110  (-0.053941  0.073692 -0.027740)
 62:   1822.41   0.073128  369.56  0.012522  (-0.030555 -0.107643  0.001241)
 63:   2951.53   0.179151  905.36  0.018941  (-0.038677  0.054880 -0.120140)
 64:   3120.17   0.000838    4.23  0.000084  (-0.006886  0.003242 -0.005085)
 65:   3124.08   0.000396    2.00  0.000040  (-0.005513  0.001764 -0.002454)
 66:   3131.39   0.000711    3.59  0.000071  (-0.003846 -0.000158  0.007486)
 67:   3184.98   0.000131    0.66  0.000013  ( 0.000432  0.001548 -0.003195)
 68:   3188.10   0.000056    0.28  0.000006  (-0.002261 -0.000378  0.000507)
 69:   3193.74   0.000037    0.19  0.000004  ( 0.000254  0.000271  0.001859)
 70:   3415.18   0.014085   71.18  0.001287  ( 0.014472  0.026448  0.019445)
 71:   3560.09   0.024890  125.79  0.002182  (-0.028978  0.036452 -0.003651)
 72:   3676.60   0.012058   60.94  0.001023  ( 0.023906  0.020558 -0.005414)
 73:   3679.23   0.007470   37.75  0.000634  (-0.009349 -0.023371  0.000150)
 74:   3773.82   0.026608  134.47  0.002200  (-0.013357  0.044728  0.004611)

* The epsilon (eps) is given for a Dirac delta lineshape.
** The dipole moment derivative (T) already includes vibrational overlap.

The first frequency considered to be a vibration is 6
The total number of vibrations considered is 69


--------------------------
THERMOCHEMISTRY AT 298.15K
--------------------------

Temperature         ... 298.15 K
Pressure            ... 1.00 atm
Total Mass          ... 190.18 AMU

Throughout the following assumptions are being made:
  (1) The electronic state is orbitally nondegenerate
  (2) There are no thermally accessible electronically excited states
  (3) Hindered rotations indicated by low frequency modes are not
      treated as such but are treated as vibrations and this may
      cause some error
  (4) All equations used are the standard statistical mechanics
      equations for an ideal gas
  (5) All vibrations are strictly harmonic

freq.      46.14  E(vib)   ...       0.53 
freq.      65.84  E(vib)   ...       0.50 
freq.      83.66  E(vib)   ...       0.48 
freq.     109.41  E(vib)   ...       0.45 
freq.     123.67  E(vib)   ...       0.43 
freq.     130.63  E(vib)   ...       0.43 
freq.     194.58  E(vib)   ...       0.36 
freq.     227.74  E(vib)   ...       0.33 
freq.     245.63  E(vib)   ...       0.31 
freq.     296.80  E(vib)   ...       0.27 
freq.     317.31  E(vib)   ...       0.25 
freq.     329.43  E(vib)   ...       0.24 
freq.     386.55  E(vib)   ...       0.20 
freq.     416.83  E(vib)   ...       0.18 
freq.     437.74  E(vib)   ...       0.17 
freq.     452.77  E(vib)   ...       0.16 
freq.     479.47  E(vib)   ...       0.15 
freq.     526.72  E(vib)   ...       0.13 
freq.     571.76  E(vib)   ...       0.11 
freq.     625.94  E(vib)   ...       0.09 
freq.     633.40  E(vib)   ...       0.09 
freq.     639.55  E(vib)   ...       0.09 
freq.     699.81  E(vib)   ...       0.07 
freq.     742.31  E(vib)   ...       0.06 
freq.     795.99  E(vib)   ...       0.05 
freq.     868.11  E(vib)   ...       0.04 
freq.     883.68  E(vib)   ...       0.04 
freq.     927.42  E(vib)   ...       0.03 
freq.     938.94  E(vib)   ...       0.03 
freq.    1009.44  E(vib)   ...       0.02 
freq.    1034.37  E(vib)   ...       0.02 
freq.    1051.16  E(vib)   ...       0.02 
freq.    1076.86  E(vib)   ...       0.02 
freq.    1121.23  E(vib)   ...       0.01 
freq.    1134.55  E(vib)   ...       0.01 
freq.    1147.94  E(vib)   ...       0.01 
freq.    1228.67  E(vib)   ...       0.01 
freq.    1257.14  E(vib)   ...       0.01 
freq.    1270.07  E(vib)   ...       0.01 
freq.    1289.88  E(vib)   ...       0.01 
freq.    1319.96  E(vib)   ...       0.01 
freq.    1342.29  E(vib)   ...       0.01 
freq.    1363.64  E(vib)   ...       0.01 
freq.    1366.14  E(vib)   ...       0.01 
freq.    1419.03  E(vib)   ...       0.00 
freq.    1435.19  E(vib)   ...       0.00 
freq.    1479.27  E(vib)   ...       0.00 
freq.    1487.95  E(vib)   ...       0.00 
freq.    1493.00  E(vib)   ...       0.00 
freq.    1539.88  E(vib)   ...       0.00 
freq.    1548.03  E(vib)   ...       0.00 
freq.    1573.01  E(vib)   ...       0.00 
freq.    1618.96  E(vib)   ...       0.00 
freq.    1693.17  E(vib)   ...       0.00 
freq.    1785.16  E(vib)   ...       0.00 
freq.    1790.40  E(vib)   ...       0.00 
freq.    1822.41  E(vib)   ...       0.00 
freq.    2951.53  E(vib)   ...       0.00 
freq.    3120.17  E(vib)   ...       0.00 
freq.    3124.08  E(vib)   ...       0.00 
freq.    3131.39  E(vib)   ...       0.00 
freq.    3184.98  E(vib)   ...       0.00 
freq.    3188.10  E(vib)   ...       0.00 
freq.    3193.74  E(vib)   ...       0.00 
freq.    3415.18  E(vib)   ...       0.00 
freq.    3560.09  E(vib)   ...       0.00 
freq.    3676.60  E(vib)   ...       0.00 
freq.    3679.23  E(vib)   ...       0.00 
freq.    3773.82  E(vib)   ...       0.00 

------------
INNER ENERGY
------------

The inner energy is: U= E(el) + E(ZPE) + E(vib) + E(rot) + E(trans)
    E(el)   - is the total energy from the electronic structure calculation
              = E(kin-el) + E(nuc-el) + E(el-el) + E(nuc-nuc)
    E(ZPE)  - the the zero temperature vibrational energy from the frequency calculation
    E(vib)  - the the finite temperature correction to E(ZPE) due to population
              of excited vibrational states
    E(rot)  - is the rotational thermal energy
    E(trans)- is the translational thermal energy

Summary of contributions to the inner energy U:
Electronic energy                ...   -701.34440594 Eh
Zero point energy                ...      0.20935344 Eh     131.37 kcal/mol
Thermal vibrational correction   ...      0.01031872 Eh       6.48 kcal/mol
Thermal rotational correction    ...      0.00141627 Eh       0.89 kcal/mol
Thermal translational correction ...      0.00141627 Eh       0.89 kcal/mol
-----------------------------------------------------------------------
Total thermal energy                   -701.12190124 Eh


Summary of corrections to the electronic energy:
(perhaps to be used in another calculation)
Total thermal correction                  0.01315126 Eh       8.25 kcal/mol
Non-thermal (ZPE) correction              0.20935344 Eh     131.37 kcal/mol
-----------------------------------------------------------------------
Total correction                          0.22250470 Eh     139.62 kcal/mol


--------
ENTHALPY
--------

The enthalpy is H = U + kB*T
                kB is Boltzmann's constant
Total free energy                 ...   -701.12190124 Eh 
Thermal Enthalpy correction       ...      0.00094421 Eh       0.59 kcal/mol
-----------------------------------------------------------------------
Total Enthalpy                    ...   -701.12095703 Eh


Note: Only C1 symmetry has been detected, increase convergence thresholds 
      if your molecule has a higher symmetry. Symmetry factor of 1.0 is   
      used for the rotational entropy correction. 
 

Note: Rotational entropy computed according to Herzberg 
Infrared and Raman Spectra, Chapter V,1, Van Nostrand Reinhold, 1945 
Point Group:  C1, Symmetry Number:   1  
Rotational constants in cm-1:     0.033279     0.027647     0.019385 

Vibrational entropy computed according to the QRRHO of S. Grimme
Chem.Eur.J. 2012 18 9955


-------
ENTROPY
-------

The entropy contributions are T*S = T*(S(el)+S(vib)+S(rot)+S(trans))
     S(el)   - electronic entropy
     S(vib)  - vibrational entropy
     S(rot)  - rotational entropy
     S(trans)- translational entropy
The entropies will be listed as multiplied by the temperature to get
units of energy

Electronic entropy                ...      0.00000000 Eh      0.00 kcal/mol
Vibrational entropy               ...      0.01796704 Eh     11.27 kcal/mol
Rotational entropy                ...      0.01467279 Eh      9.21 kcal/mol
Translational entropy             ...      0.01978162 Eh     12.41 kcal/mol
-----------------------------------------------------------------------
Final entropy term                ...      0.05242145 Eh     32.89 kcal/mol

In case the symmetry of your molecule has not been determined correctly
or in case you have a reason to use a different symmetry number we print 
out the resulting rotational entropy values for sn=1,12 :
 --------------------------------------------------------
|  sn= 1 | S(rot)=       0.01467279 Eh      9.21 kcal/mol|
|  sn= 2 | S(rot)=       0.01401834 Eh      8.80 kcal/mol|
|  sn= 3 | S(rot)=       0.01363551 Eh      8.56 kcal/mol|
|  sn= 4 | S(rot)=       0.01336388 Eh      8.39 kcal/mol|
|  sn= 5 | S(rot)=       0.01315319 Eh      8.25 kcal/mol|
|  sn= 6 | S(rot)=       0.01298105 Eh      8.15 kcal/mol|
|  sn= 7 | S(rot)=       0.01283550 Eh      8.05 kcal/mol|
|  sn= 8 | S(rot)=       0.01270943 Eh      7.98 kcal/mol|
|  sn= 9 | S(rot)=       0.01259822 Eh      7.91 kcal/mol|
|  sn=10 | S(rot)=       0.01249874 Eh      7.84 kcal/mol|
|  sn=11 | S(rot)=       0.01240875 Eh      7.79 kcal/mol|
|  sn=12 | S(rot)=       0.01232659 Eh      7.74 kcal/mol|
 --------------------------------------------------------


-------------------
GIBBS FREE ENERGY
-------------------

The Gibbs free energy is G = H - T*S

Total enthalpy                    ...   -701.12095703 Eh 
Total entropy correction          ...     -0.05242145 Eh    -32.89 kcal/mol
-----------------------------------------------------------------------
Final Gibbs free energy         ...   -701.17337848 Eh

For completeness - the Gibbs free energy minus the electronic energy
G-E(el)                           ...      0.17102746 Eh    107.32 kcal/mol


Timings for individual modules:

Sum of individual times         ...     9204.152 sec (= 153.403 min)
GTO integral calculation        ...       21.828 sec (=   0.364 min)   0.2 %
SCF iterations                  ...     2611.800 sec (=  43.530 min)  28.4 %
SCF Gradient evaluation         ...      538.525 sec (=   8.975 min)   5.9 %
Geometry relaxation             ...        1.263 sec (=   0.021 min)   0.0 %
Analytical frequency calculation...     5526.858 sec (=  92.114 min)  60.0 %
CHELPG charge generation        ...      503.878 sec (=   8.398 min)   5.5 %
                             ****ORCA TERMINATED NORMALLY****
TOTAL RUN TIME: 0 days 2 hours 33 minutes 51 seconds 38 msec
