
Lmod is automatically replacing "intel/2020.1.217" with "gcc/10.3.0".


Due to MODULEPATH changes, the following have been reloaded:
  1) blis/0.8.1     2) flexiblas/3.0.4

The following have been reloaded with a version change:
  1) gcccore/.9.3.0 => gcccore/.10.3.0        3) openmpi/4.0.3 => openmpi/4.1.1
  2) libfabric/1.10.1 => libfabric/1.12.1     4) ucx/1.8.0 => ucx/1.9.0

To execute ORCA, run: 
   ${EBROOTORCA}/orca orca.inp > orca.out

                                 *****************
                                 * O   R   C   A *
                                 *****************

                                            #,                                       
                                            ###                                      
                                            ####                                     
                                            #####                                    
                                            ######                                   
                                           ########,                                 
                                     ,,################,,,,,                         
                               ,,#################################,,                 
                          ,,##########################################,,             
                       ,#########################################, ''#####,          
                    ,#############################################,,   '####,        
                  ,##################################################,,,,####,       
                ,###########''''           ''''###############################       
              ,#####''   ,,,,##########,,,,          '''####'''          '####       
            ,##' ,,,,###########################,,,                        '##       
           ' ,,###''''                  '''############,,,                           
         ,,##''                                '''############,,,,        ,,,,,,###''
      ,#''                                            '''#######################'''  
     '                                                          ''''####''''         
             ,#######,   #######,   ,#######,      ##                                
            ,#'     '#,  ##    ##  ,#'     '#,    #''#        ######   ,####,        
            ##       ##  ##   ,#'  ##            #'  '#       #        #'  '#        
            ##       ##  #######   ##           ,######,      #####,   #    #        
            '#,     ,#'  ##    ##  '#,     ,#' ,#      #,         ##   #,  ,#        
             '#######'   ##     ##  '#######'  #'      '#     #####' # '####'        



                  #######################################################
                  #                        -***-                        #
                  #          Department of theory and spectroscopy      #
                  #    Directorship and core code : Frank Neese         #
                  #        Max Planck Institute fuer Kohlenforschung    #
                  #                Kaiser Wilhelm Platz 1               #
                  #                 D-45470 Muelheim/Ruhr               #
                  #                      Germany                        #
                  #                                                     #
                  #                  All rights reserved                #
                  #                        -***-                        #
                  #######################################################


                         Program Version 5.0.2 -  RELEASE  -


 With contributions from (in alphabetic order):
   Daniel Aravena         : Magnetic Suceptibility
   Michael Atanasov       : Ab Initio Ligand Field Theory (pilot matlab implementation)
   Alexander A. Auer      : GIAO ZORA, VPT2 properties, NMR spectrum
   Ute Becker             : Parallelization
   Giovanni Bistoni       : ED, misc. LED, open-shell LED, HFLD
   Martin Brehm           : Molecular dynamics
   Dmytro Bykov           : SCF Hessian
   Vijay G. Chilkuri      : MRCI spin determinant printing, contributions to CSF-ICE
   Dipayan Datta          : RHF DLPNO-CCSD density
   Achintya Kumar Dutta   : EOM-CC, STEOM-CC
   Dmitry Ganyushin       : Spin-Orbit,Spin-Spin,Magnetic field MRCI
   Miquel Garcia          : C-PCM and meta-GGA Hessian, CC/C-PCM, Gaussian charge scheme
   Yang Guo               : DLPNO-NEVPT2, F12-NEVPT2, CIM, IAO-localization
   Andreas Hansen         : Spin unrestricted coupled pair/coupled cluster methods
   Benjamin Helmich-Paris : MC-RPA, TRAH-SCF, COSX integrals
   Lee Huntington         : MR-EOM, pCC
   Robert Izsak           : Overlap fitted RIJCOSX, COSX-SCS-MP3, EOM
   Marcus Kettner         : VPT2
   Christian Kollmar      : KDIIS, OOCD, Brueckner-CCSD(T), CCSD density, CASPT2, CASPT2-K
   Simone Kossmann        : Meta GGA functionals, TD-DFT gradient, OOMP2, MP2 Hessian
   Martin Krupicka        : Initial AUTO-CI
   Lucas Lang             : DCDCAS
   Marvin Lechner         : AUTO-CI (C++ implementation), FIC-MRCC
   Dagmar Lenk            : GEPOL surface, SMD
   Dimitrios Liakos       : Extrapolation schemes; Compound Job, initial MDCI parallelization
   Dimitrios Manganas     : Further ROCIS development; embedding schemes
   Dimitrios Pantazis     : SARC Basis sets
   Anastasios Papadopoulos: AUTO-CI, single reference methods and gradients
   Taras Petrenko         : DFT Hessian,TD-DFT gradient, ASA, ECA, R-Raman, ABS, FL, XAS/XES, NRVS
   Peter Pinski           : DLPNO-MP2, DLPNO-MP2 Gradient
   Christoph Reimann      : Effective Core Potentials
   Marius Retegan         : Local ZFS, SOC
   Christoph Riplinger    : Optimizer, TS searches, QM/MM, DLPNO-CCSD(T), (RO)-DLPNO pert. Triples
   Tobias Risthaus        : Range-separated hybrids, TD-DFT gradient, RPA, STAB
   Michael Roemelt        : Original ROCIS implementation
   Masaaki Saitow         : Open-shell DLPNO-CCSD energy and density
   Barbara Sandhoefer     : DKH picture change effects
   Avijit Sen             : IP-ROCIS
   Kantharuban Sivalingam : CASSCF convergence, NEVPT2, FIC-MRCI
   Bernardo de Souza      : ESD, SOC TD-DFT
   Georgi Stoychev        : AutoAux, RI-MP2 NMR, DLPNO-MP2 response
   Willem Van den Heuvel  : Paramagnetic NMR
   Boris Wezisla          : Elementary symmetry handling
   Frank Wennmohs         : Technical directorship


 We gratefully acknowledge several colleagues who have allowed us to
 interface, adapt or use parts of their codes:
   Stefan Grimme, W. Hujo, H. Kruse, P. Pracht,  : VdW corrections, initial TS optimization,
                  C. Bannwarth, S. Ehlert          DFT functionals, gCP, sTDA/sTD-DF
   Ed Valeev, F. Pavosevic, A. Kumar             : LibInt (2-el integral package), F12 methods
   Garnet Chan, S. Sharma, J. Yang, R. Olivares  : DMRG
   Ulf Ekstrom                                   : XCFun DFT Library
   Mihaly Kallay                                 : mrcc  (arbitrary order and MRCC methods)
   Jiri Pittner, Ondrej Demel                    : Mk-CCSD
   Frank Weinhold                                : gennbo (NPA and NBO analysis)
   Christopher J. Cramer and Donald G. Truhlar   : smd solvation model
   Lars Goerigk                                  : TD-DFT with DH, B97 family of functionals
   V. Asgeirsson, H. Jonsson                     : NEB implementation
   FAccTs GmbH                                   : IRC, NEB, NEB-TS, DLPNO-Multilevel, CI-OPT
                                                   MM, QMMM, 2- and 3-layer-ONIOM, Crystal-QMMM,
                                                   LR-CPCM, SF, NACMEs, symmetry and pop. for TD-DFT,
                                                   nearIR, NL-DFT gradient (VV10), updates on ESD,
                                                   ML-optimized integration grids
   S Lehtola, MJT Oliveira, MAL Marques          : LibXC Library
   Liviu Ungur et al                             : ANISO software


 Your calculation uses the libint2 library for the computation of 2-el integrals
 For citations please refer to: http://libint.valeyev.net

 Your ORCA version has been built with support for libXC version: 5.1.0
 For citations please refer to: https://tddft.org/programs/libxc/

 This ORCA versions uses:
   CBLAS   interface :  Fast vector & matrix operations
   LAPACKE interface :  Fast linear algebra routines
   SCALAPACK package :  Parallel linear algebra routines
   Shared memory     :  Shared parallel matrices
   BLAS/LAPACK       :  OpenBLAS 0.3.15  USE64BITINT DYNAMIC_ARCH NO_AFFINITY Zen SINGLE_THREADED
        Core in use  :  Zen
   Copyright (c) 2011-2014, The OpenBLAS Project


Your calculation utilizes the atom-pairwise dispersion correction
with the Becke-Johnson damping scheme (D3BJ)
Cite in your paper:
S.Grimme, S.Ehrlich, L.Goerigk, J Comput Chem, (2011), 32, 1456–1465 
S.Grimme, J.Antony, S.Ehrlich and H.Krieg, J.Chem.Phys., 132, (2010), 154104 
   

================================================================================

----- Orbital basis set information -----
Your calculation utilizes the basis: def2-TZVPP
   F. Weigend and R. Ahlrichs, Phys. Chem. Chem. Phys. 7, 3297 (2005).

----- AuxJ basis set information -----
Your calculation utilizes the auxiliary basis: def2/J
   F. Weigend, Phys. Chem. Chem. Phys. 8, 1057 (2006).

================================================================================
                                        WARNINGS
                       Please study these warnings very carefully!
================================================================================


WARNING: Geometry Optimization
  ===> : Switching off AutoStart
         For restart on a previous wavefunction, please use MOREAD

INFO   : the flag for use of the SHARK integral package has been found!

================================================================================
                                       INPUT FILE
================================================================================
NAME = GGG-H_tt_002_OptFreq.inp
|  1> # GGG-H_tt_002 (old 011)
|  2> ! wB97X-D3BJ Opt Freq def2-TZVPP def2/J RIJCOSX VeryTightSCF
|  3> ! PAL8 defgrid3 VeryTightOpt
|  4> 
|  5> %maxcore 4096
|  6> 
|  7> %geom
|  8>   MaxIter 300
|  9>   # MaxStep 0.1
| 10>   Calc_Hess true
| 11>   Recalc_Hess 10
| 12> end
| 13> 
| 14> %chelpg
| 15>   grid 0.1
| 16>   rmax 3.0
| 17> end
| 18> 
| 19> * xyz 1 1 
| 20>  N   -1.087172   +1.890345   -2.937427
| 21>  H   -1.759568   +2.539902   -2.523224
| 22>  C   -0.924551   +1.957330   -4.388426
| 23>  C   -1.778729   +3.043791   -5.029744
| 24>  H   +0.130271   +2.152534   -4.650014
| 25>  H   -1.194009   +0.992680   -4.854474
| 26>  O   -1.775227   +3.278376   -6.211781
| 27>  C   -0.392195   +1.041708   -2.170878
| 28>  C   -0.641702   +1.131586   -0.641905
| 29>  O   +0.423815   +0.229566   -2.660413
| 30>  N   +0.000000   +0.000000   +0.000000
| 31>  H   -1.718802   +1.147945   -0.411893
| 32>  H   -0.186742   +2.060186   -0.259369
| 33>  H   -0.467849   -0.899788   -0.106442
| 34>  C   +1.368839   +0.000000   +0.000000
| 35>  C   +2.046966   -1.348318   -0.291044
| 36>  O   +2.061309   +1.009887   +0.000000
| 37>  H   +1.375389   -2.219556   -0.301060
| 38>  H   +2.909378   -1.531678   +0.365797
| 39>  O   -2.536091   +3.700371   -4.111161
| 40>  H   -3.059558   +4.381345   -4.587025
| 41>  N   +2.532918   -1.109428   -1.704332
| 42>  H   +3.265558   -0.379475   -1.678933
| 43>  H   +2.903695   -1.950051   -2.170523
| 44>  H   +1.702565   -0.671831   -2.241647
| 45> *
| 46> 
| 47>                          ****END OF INPUT****
================================================================================

                       *****************************
                       * Geometry Optimization Run *
                       *****************************

Geometry optimization settings:
Update method            Update   .... BFGS
Choice of coordinates    CoordSys .... Z-matrix Internals
Initial Hessian          InHess   .... Almoef's Model

Convergence Tolerances:
Energy Change            TolE     ....  2.0000e-07 Eh
Max. Gradient            TolMAXG  ....  3.0000e-05 Eh/bohr
RMS Gradient             TolRMSG  ....  8.0000e-06 Eh/bohr
Max. Displacement        TolMAXD  ....  2.0000e-04 bohr
RMS Displacement         TolRMSD  ....  1.0000e-04 bohr
Strict Convergence                ....  False
------------------------------------------------------------------------------
                        ORCA OPTIMIZATION COORDINATE SETUP
------------------------------------------------------------------------------

The optimization will be done in new redundant internal coordinates
Making redundant internal coordinates   ...  (new redundants) done
Evaluating the initial hessian          ...  (Is done on the fly) done
Evaluating the coordinates              ...  done
Calculating the B-matrix                .... done
Calculating the G-matrix                .... done
Diagonalizing the G-matrix              .... done
Small eigenvalue found = 3.942e-03
Small eigenvalue found = 1.392e-02
Small eigenvalue found = 1.865e-02
Small eigenvalue found = 2.590e-02
The first mode is                       ....   44
The number of degrees of freedom        ....   69

    -----------------------------------------------------------------
                    Redundant Internal Coordinates


    -----------------------------------------------------------------
         Definition                    Initial Value    d2E/dq (diagonal element)
    -----------------------------------------------------------------
      1. B(H   1,N   0)                  1.0225         0.000000   
      2. B(C   2,N   0)                  1.4616         0.000000   
      3. B(C   3,C   2)                  1.5236         0.000000   
      4. B(H   4,C   2)                  1.1042         0.000000   
      5. B(H   5,C   2)                  1.1047         0.000000   
      6. B(O   6,C   3)                  1.2051         0.000000   
      7. B(C   7,N   0)                  1.3382         0.000000   
      8. B(C   8,C   7)                  1.5518         0.000000   
      9. B(O   9,C   7)                  1.2510         0.000000   
     10. B(N  10,C   8)                  1.4506         0.000000   
     11. B(H  11,C   8)                  1.1015         0.000000   
     12. B(H  12,C   8)                  1.1026         0.000000   
     13. B(H  13,N  10)                  1.0197         0.000000   
     14. B(C  14,N  10)                  1.3688         0.000000   
     15. B(C  15,C  14)                  1.5371         0.000000   
     16. B(O  16,C  14)                  1.2245         0.000000   
     17. B(H  17,C  15)                  1.1001         0.000000   
     18. B(H  18,C  15)                  1.0995         0.000000   
     19. B(O  19,C   3)                  1.3596         0.000000   
     20. B(H  20,O  19)                  0.9819         0.000000   
     21. B(N  21,C  15)                  1.5135         0.000000   
     22. B(H  22,N  21)                  1.0345         0.000000   
     23. B(H  23,N  21)                  1.0303         0.000000   
     24. B(H  24,N  21)                  1.0815         0.000000   
     25. A(H   1,N   0,C   2)          116.4986         0.000000   
     26. A(C   2,N   0,C   7)          122.6796         0.000000   
     27. A(H   1,N   0,C   7)          120.8178         0.000000   
     28. A(C   3,C   2,H   5)          107.9606         0.000000   
     29. A(C   3,C   2,H   4)          108.0468         0.000000   
     30. A(N   0,C   2,H   4)          110.4616         0.000000   
     31. A(N   0,C   2,C   3)          112.8408         0.000000   
     32. A(N   0,C   2,H   5)          110.5886         0.000000   
     33. A(H   4,C   2,H   5)          106.7053         0.000000   
     34. A(O   6,C   3,O  19)          124.7723         0.000000   
     35. A(C   2,C   3,O  19)          111.8565         0.000000   
     36. A(C   2,C   3,O   6)          123.3709         0.000000   
     37. A(C   8,C   7,O   9)          121.8719         0.000000   
     38. A(N   0,C   7,O   9)          121.7547         0.000000   
     39. A(N   0,C   7,C   8)          116.3698         0.000000   
     40. A(C   7,C   8,H  11)          111.3354         0.000000   
     41. A(C   7,C   8,N  10)          108.6440         0.000000   
     42. A(H  11,C   8,H  12)          108.5747         0.000000   
     43. A(N  10,C   8,H  12)          108.7191         0.000000   
     44. A(C   7,C   8,H  12)          108.9222         0.000000   
     45. A(N  10,C   8,H  11)          110.5941         0.000000   
     46. A(H  13,N  10,C  14)          117.3098         0.000000   
     47. A(C   8,N  10,C  14)          116.2547         0.000000   
     48. A(C   8,N  10,H  13)          116.0513         0.000000   
     49. A(C  15,C  14,O  16)          118.2924         0.000000   
     50. A(N  10,C  14,O  16)          124.4381         0.000000   
     51. A(N  10,C  14,C  15)          116.1797         0.000000   
     52. A(H  17,C  15,H  18)          110.6230         0.000000   
     53. A(C  14,C  15,H  18)          112.2864         0.000000   
     54. A(C  14,C  15,H  17)          115.2849         0.000000   
     55. A(H  18,C  15,N  21)          109.4109         0.000000   
     56. A(H  17,C  15,N  21)          108.2112         0.000000   
     57. A(C  14,C  15,N  21)          100.3706         0.000000   
     58. A(C   3,O  19,H  20)          107.7250         0.000000   
     59. A(H  23,N  21,H  24)          112.4349         0.000000   
     60. A(H  22,N  21,H  24)          105.6898         0.000000   
     61. A(C  15,N  21,H  24)          106.3364         0.000000   
     62. A(H  22,N  21,H  23)          109.3875         0.000000   
     63. A(C  15,N  21,H  23)          114.1613         0.000000   
     64. A(C  15,N  21,H  22)          108.4112         0.000000   
     65. D(H   4,C   2,N   0,C   7)    -56.3426         0.000000   
     66. D(H   5,C   2,N   0,C   7)     61.5555         0.000000   
     67. D(H   5,C   2,N   0,H   1)   -119.1668         0.000000   
     68. D(H   4,C   2,N   0,H   1)    122.9351         0.000000   
     69. D(C   3,C   2,N   0,H   1)      1.8742         0.000000   
     70. D(C   3,C   2,N   0,C   7)   -177.4035         0.000000   
     71. D(O   6,C   3,C   2,H   4)     56.3519         0.000000   
     72. D(O  19,C   3,C   2,H   5)    121.1015         0.000000   
     73. D(O  19,C   3,C   2,H   4)   -123.8474         0.000000   
     74. D(O   6,C   3,C   2,H   5)    -58.6992         0.000000   
     75. D(O  19,C   3,C   2,N   0)     -1.4229         0.000000   
     76. D(O   6,C   3,C   2,N   0)    178.7764         0.000000   
     77. D(O   9,C   7,N   0,H   1)    179.1937         0.000000   
     78. D(C   8,C   7,N   0,C   2)    177.7566         0.000000   
     79. D(C   8,C   7,N   0,H   1)     -1.4907         0.000000   
     80. D(O   9,C   7,N   0,C   2)     -1.5591         0.000000   
     81. D(H  12,C   8,C   7,O   9)    107.5424         0.000000   
     82. D(H  12,C   8,C   7,N   0)    -71.7723         0.000000   
     83. D(H  11,C   8,C   7,O   9)   -132.7604         0.000000   
     84. D(N  10,C   8,C   7,O   9)    -10.7332         0.000000   
     85. D(N  10,C   8,C   7,N   0)    169.9520         0.000000   
     86. D(H  11,C   8,C   7,N   0)     47.9248         0.000000   
     87. D(C  14,N  10,C   8,H  12)    -49.2359         0.000000   
     88. D(C  14,N  10,C   8,H  11)   -168.3545         0.000000   
     89. D(C  14,N  10,C   8,C   7)     69.1681         0.000000   
     90. D(H  13,N  10,C   8,H  12)    166.6143         0.000000   
     91. D(H  13,N  10,C   8,H  11)     47.4957         0.000000   
     92. D(H  13,N  10,C   8,C   7)    -74.9817         0.000000   
     93. D(O  16,C  14,N  10,C   8)     29.5646         0.000000   
     94. D(C  15,C  14,N  10,H  13)      5.4343         0.000000   
     95. D(C  15,C  14,N  10,C   8)   -138.2546         0.000000   
     96. D(O  16,C  14,N  10,H  13)    173.2534         0.000000   
     97. D(N  21,C  15,C  14,O  16)    -62.7137         0.000000   
     98. D(N  21,C  15,C  14,N  10)    105.8882         0.000000   
     99. D(H  18,C  15,C  14,O  16)     53.3992         0.000000   
    100. D(H  18,C  15,C  14,N  10)   -137.9989         0.000000   
    101. D(H  17,C  15,C  14,O  16)   -178.6787         0.000000   
    102. D(H  17,C  15,C  14,N  10)    -10.0768         0.000000   
    103. D(H  20,O  19,C   3,O   6)     -0.1245         0.000000   
    104. D(H  20,O  19,C   3,C   2)   -179.9219         0.000000   
    105. D(H  24,N  21,C  15,H  18)   -164.7083         0.000000   
    106. D(H  24,N  21,C  15,H  17)     74.6900         0.000000   
    107. D(H  24,N  21,C  15,C  14)    -46.4625         0.000000   
    108. D(H  23,N  21,C  15,H  18)     70.7250         0.000000   
    109. D(H  23,N  21,C  15,H  17)    -49.8766         0.000000   
    110. D(H  23,N  21,C  15,C  14)   -171.0292         0.000000   
    111. D(H  22,N  21,C  15,H  18)    -51.4687         0.000000   
    112. D(H  22,N  21,C  15,H  17)   -172.0703         0.000000   
    113. D(H  22,N  21,C  15,C  14)     66.7771         0.000000   
    -----------------------------------------------------------------

Number of atoms                         .... 25
Number of degrees of freedom            .... 113

         *************************************************************
         *                GEOMETRY OPTIMIZATION CYCLE   1            *
         *************************************************************
---------------------------------
CARTESIAN COORDINATES (ANGSTROEM)
---------------------------------
  N     -1.087172    1.890345   -2.937427
  H     -1.759568    2.539902   -2.523224
  C     -0.924551    1.957330   -4.388426
  C     -1.778729    3.043791   -5.029744
  H      0.130271    2.152534   -4.650014
  H     -1.194009    0.992680   -4.854474
  O     -1.775227    3.278376   -6.211781
  C     -0.392195    1.041708   -2.170878
  C     -0.641702    1.131586   -0.641905
  O      0.423815    0.229566   -2.660413
  N      0.000000    0.000000    0.000000
  H     -1.718802    1.147945   -0.411893
  H     -0.186742    2.060186   -0.259369
  H     -0.467849   -0.899788   -0.106442
  C      1.368839    0.000000    0.000000
  C      2.046966   -1.348318   -0.291044
  O      2.061309    1.009887    0.000000
  H      1.375389   -2.219556   -0.301060
  H      2.909378   -1.531678    0.365797
  O     -2.536091    3.700371   -4.111161
  H     -3.059558    4.381345   -4.587025
  N      2.532918   -1.109428   -1.704332
  H      3.265558   -0.379475   -1.678933
  H      2.903695   -1.950051   -2.170523
  H      1.702565   -0.671831   -2.241647

----------------------------
CARTESIAN COORDINATES (A.U.)
----------------------------
  NO LB      ZA    FRAG     MASS         X           Y           Z
   0 N     7.0000    0    14.007   -2.054457    3.572234   -5.550933
   1 H     1.0000    0     1.008   -3.325102    4.799719   -4.768202
   2 C     6.0000    0    12.011   -1.747148    3.698818   -8.292923
   3 C     6.0000    0    12.011   -3.361311    5.751931   -9.504839
   4 H     1.0000    0     1.008    0.246177    4.067700   -8.787253
   5 H     1.0000    0     1.008   -2.256350    1.875893   -9.173626
   6 O     8.0000    0    15.999   -3.354693    6.195233  -11.738565
   7 C     6.0000    0    12.011   -0.741141    1.968543   -4.102365
   8 C     6.0000    0    12.011   -1.212641    2.138388   -1.213025
   9 O     8.0000    0    15.999    0.800894    0.433817   -5.027452
  10 N     7.0000    0    14.007    0.000000    0.000000    0.000000
  11 H     1.0000    0     1.008   -3.248065    2.169302   -0.778365
  12 H     1.0000    0     1.008   -0.352891    3.893187   -0.490136
  13 H     1.0000    0     1.008   -0.884106   -1.700353   -0.201146
  14 C     6.0000    0    12.011    2.586731    0.000000    0.000000
  15 C     6.0000    0    12.011    3.868205   -2.547952   -0.549993
  16 O     8.0000    0    15.999    3.895309    1.908410    0.000000
  17 H     1.0000    0     1.008    2.599109   -4.194353   -0.568921
  18 H     1.0000    0     1.008    5.497928   -2.894452    0.691256
  19 O     8.0000    0    15.999   -4.792517    6.992688   -7.768968
  20 H     1.0000    0     1.008   -5.781727    8.279542   -8.668221
  21 N     7.0000    0    14.007    4.786521   -2.096515   -3.220721
  22 H     1.0000    0     1.008    6.171010   -0.717104   -3.172724
  23 H     1.0000    0     1.008    5.487188   -3.685062   -4.101694
  24 H     1.0000    0     1.008    3.217382   -1.269577   -4.236099

--------------------------------
INTERNAL COORDINATES (ANGSTROEM)
--------------------------------
 N      0   0   0     0.000000000000     0.00000000     0.00000000
 H      1   0   0     1.022548190685     0.00000000     0.00000000
 C      1   2   0     1.461619197283   116.49857360     0.00000000
 C      3   1   2     1.523583387061   112.84084141     1.87418360
 H      3   1   2     1.104165900145   110.46159688   122.93508211
 H      3   1   2     1.104698137306   110.58855788   240.83319201
 O      4   3   1     1.205094957088   123.37087157   178.77638445
 C      1   2   3     1.338198474704   120.81782465   179.29203028
 C      8   1   2     1.551802253079   116.36979388   358.50934791
 O      8   1   2     1.251036156348   121.75468450   179.19367997
 N      9   8   1     1.450624128169   108.64399708   169.95199796
 H      9   8   1     1.101506943703   111.33538783    47.92476381
 H      9   8   1     1.102551746131   108.92223790   288.22765015
 H     11   9   8     1.019721055539   116.05127688   285.01833933
 C     11   9   8     1.368839000000   116.25472787    69.16807764
 C     15  11   9     1.537050508991   116.17965330   221.74537649
 O     15  11   9     1.224494366532   124.43806535    29.56456666
 H     16  15  11     1.100078015338   115.28491694   349.92318036
 H     16  15  11     1.099461434806   112.28641717   222.00108216
 O      4   3   1     1.359591564895   111.85650489   358.57708972
 H     20   4   3     0.981931685639   107.72501752   180.07811637
 N     16  15  11     1.513473075198   100.37064259   105.88817761
 H     22  16  15     1.034523011349   108.41123733    66.77712973
 H     22  16  15     1.030270188028   114.16126032   188.97083789
 H     22  16  15     1.081519601414   106.33636942   313.53747244

---------------------------
INTERNAL COORDINATES (A.U.)
---------------------------
 N      0   0   0     0.000000000000     0.00000000     0.00000000
 H      1   0   0     1.932336039132     0.00000000     0.00000000
 C      1   2   0     2.762059994947   116.49857360     0.00000000
 C      3   1   2     2.879155343738   112.84084141     1.87418360
 H      3   1   2     2.086571157690   110.46159688   122.93508211
 H      3   1   2     2.087576940162   110.58855788   240.83319201
 O      4   3   1     2.277299434265   123.37087157   178.77638445
 C      1   2   3     2.528828630021   120.81782465   179.29203028
 C      8   1   2     2.932481272322   116.36979388   358.50934791
 O      8   1   2     2.364115719130   121.75468450   179.19367997
 N      9   8   1     2.741282325497   108.64399708   169.95199796
 H      9   8   1     2.081546458210   111.33538783    47.92476381
 H      9   8   1     2.083520848664   108.92223790   288.22765015
 H     11   9   8     1.926993527961   116.05127688   285.01833933
 C     11   9   8     2.586730831431   116.25472787    69.16807764
 C     15  11   9     2.904604515997   116.17965330   221.74537649
 O     15  11   9     2.313959005275   124.43806535    29.56456666
 H     16  15  11     2.078846174936   115.28491694   349.92318036
 H     16  15  11     2.077681006591   112.28641717   222.00108216
 O      4   3   1     2.569255711641   111.85650489   358.57708972
 H     20   4   3     1.855581968077   107.72501752   180.07811637
 N     16  15  11     2.860049623187   100.37064259   105.88817761
 H     22  16  15     1.954965170689   108.41123733    66.77712973
 H     22  16  15     1.946928499316   114.16126032   188.97083789
 H     22  16  15     2.043775855140   106.33636942   313.53747244

---------------------
BASIS SET INFORMATION
---------------------
There are 4 groups of distinct atoms

 Group   1 Type N   : 11s6p2d1f contracted to 5s3p2d1f pattern {62111/411/11/1}
 Group   2 Type H   : 5s2p1d contracted to 3s2p1d pattern {311/11/1}
 Group   3 Type C   : 11s6p2d1f contracted to 5s3p2d1f pattern {62111/411/11/1}
 Group   4 Type O   : 11s6p2d1f contracted to 5s3p2d1f pattern {62111/411/11/1}

Atom   0N    basis set group =>   1
Atom   1H    basis set group =>   2
Atom   2C    basis set group =>   3
Atom   3C    basis set group =>   3
Atom   4H    basis set group =>   2
Atom   5H    basis set group =>   2
Atom   6O    basis set group =>   4
Atom   7C    basis set group =>   3
Atom   8C    basis set group =>   3
Atom   9O    basis set group =>   4
Atom  10N    basis set group =>   1
Atom  11H    basis set group =>   2
Atom  12H    basis set group =>   2
Atom  13H    basis set group =>   2
Atom  14C    basis set group =>   3
Atom  15C    basis set group =>   3
Atom  16O    basis set group =>   4
Atom  17H    basis set group =>   2
Atom  18H    basis set group =>   2
Atom  19O    basis set group =>   4
Atom  20H    basis set group =>   2
Atom  21N    basis set group =>   1
Atom  22H    basis set group =>   2
Atom  23H    basis set group =>   2
Atom  24H    basis set group =>   2
---------------------------------
AUXILIARY/J BASIS SET INFORMATION
---------------------------------
There are 4 groups of distinct atoms

 Group   1 Type N   : 12s5p4d2f1g contracted to 6s4p3d1f1g pattern {711111/2111/211/2/1}
 Group   2 Type H   : 5s2p1d contracted to 3s1p1d pattern {311/2/1}
 Group   3 Type C   : 12s5p4d2f1g contracted to 6s4p3d1f1g pattern {711111/2111/211/2/1}
 Group   4 Type O   : 12s5p4d2f1g contracted to 6s4p3d1f1g pattern {711111/2111/211/2/1}

Atom   0N    basis set group =>   1
Atom   1H    basis set group =>   2
Atom   2C    basis set group =>   3
Atom   3C    basis set group =>   3
Atom   4H    basis set group =>   2
Atom   5H    basis set group =>   2
Atom   6O    basis set group =>   4
Atom   7C    basis set group =>   3
Atom   8C    basis set group =>   3
Atom   9O    basis set group =>   4
Atom  10N    basis set group =>   1
Atom  11H    basis set group =>   2
Atom  12H    basis set group =>   2
Atom  13H    basis set group =>   2
Atom  14C    basis set group =>   3
Atom  15C    basis set group =>   3
Atom  16O    basis set group =>   4
Atom  17H    basis set group =>   2
Atom  18H    basis set group =>   2
Atom  19O    basis set group =>   4
Atom  20H    basis set group =>   2
Atom  21N    basis set group =>   1
Atom  22H    basis set group =>   2
Atom  23H    basis set group =>   2
Atom  24H    basis set group =>   2


           ************************************************************
           *        Program running with 8 parallel MPI-processes     *
           *              working on a common directory               *
           ************************************************************
------------------------------------------------------------------------------
                           ORCA GTO INTEGRAL CALCULATION
                           -- RI-GTO INTEGRALS CHOSEN --
------------------------------------------------------------------------------
------------------------------------------------------------------------------
                   ___                                                        
                  /   \      - P O W E R E D   B Y -                         
                 /     \                                                     
                 |  |  |   _    _      __       _____    __    __             
                 |  |  |  | |  | |    /  \     |  _  \  |  |  /  |          
                  \  \/   | |  | |   /    \    | | | |  |  | /  /          
                 / \  \   | |__| |  /  /\  \   | |_| |  |  |/  /          
                |  |  |   |  __  | /  /__\  \  |    /   |      \           
                |  |  |   | |  | | |   __   |  |    \   |  |\   \          
                \     /   | |  | | |  |  |  |  | |\  \  |  | \   \       
                 \___/    |_|  |_| |__|  |__|  |_| \__\ |__|  \__/        
                                                                              
                      - O R C A' S   B I G   F R I E N D -                    
                                      &                                       
                       - I N T E G R A L  F E E D E R -                       
                                                                              
 v1 FN, 2020, v2 2021                                                         
------------------------------------------------------------------------------


Reading SHARK input file GGG-H_tt_002_OptFreq.SHARKINP.tmp ... ok
----------------------
SHARK INTEGRAL PACKAGE
----------------------

Number of atoms                             ...     25
Number of basis functions                   ...    571
Number of shells                            ...    215
Maximum angular momentum                    ...      3
Integral batch strategy                     ... SHARK/LIBINT Hybrid
RI-J (if used) integral strategy            ... SPLIT-RIJ (Revised 2003 algorithm where possible)
Printlevel                                  ...      1
Contraction scheme used                     ... SEGMENTED contraction
Coulomb Range Separation                    ... NOT USED
Exchange Range Separation                   ... Long Range
   Mu parameter                             ...  0.300000
   Scaling (regular/separated)              ...  0.167000  0.833000
Finite Nucleus Model                        ... NOT USED
Auxiliary Coulomb fitting basis             ... AVAILABLE
   # of basis functions in Aux-J            ...    769
   # of shells in Aux-J                     ...    255
   Maximum angular momentum in Aux-J        ...      4
Auxiliary J/K fitting basis                 ... NOT available
Auxiliary Correlation fitting basis         ... NOT available
Auxiliary 'external' fitting basis          ... NOT available
Integral threshold                          ...     1.000000e-12
Primitive cut-off                           ...     1.000000e-14
Primitive pair pre-selection threshold      ...     1.000000e-14

Calculating pre-screening integrals         ... done (  0.0 sec) Dimension = 215
Organizing shell pair data                  ... done (  0.2 sec)
Shell pair information
Total number of shell pairs                 ...     23220
Shell pairs after pre-screening             ...     18439
Total number of primitive shell pairs       ...     63868
Primitive shell pairs kept                  ...     37125
          la=0 lb=0:   4087 shell pairs
          la=1 lb=0:   5205 shell pairs
          la=1 lb=1:   1715 shell pairs
          la=2 lb=0:   2906 shell pairs
          la=2 lb=1:   1909 shell pairs
          la=2 lb=2:    543 shell pairs
          la=3 lb=0:   1001 shell pairs
          la=3 lb=1:    651 shell pairs
          la=3 lb=2:    355 shell pairs
          la=3 lb=3:     67 shell pairs

Calculating one electron integrals          ... done (  0.1 sec)
Calculating RI/J V-Matrix + Cholesky decomp.... done (  0.5 sec)
Calculating Nuclear repulsion               ... done (  0.0 sec) ENN=    834.197826354189 Eh

SHARK setup successfully completed in   1.9 seconds

Maximum memory used throughout the entire GTOINT-calculation: 30.4 MB


           ************************************************************
           *        Program running with 8 parallel MPI-processes     *
           *              working on a common directory               *
           ************************************************************
-------------------------------------------------------------------------------
                                 ORCA SCF
-------------------------------------------------------------------------------

------------
SCF SETTINGS
------------
Hamiltonian:
 Density Functional     Method          .... DFT(GTOs)
 Exchange Functional    Exchange        .... WB97X-V
 Correlation Functional Correlation     .... WB97X-V
 Gradients option       PostSCFGGA      .... off
 Hybrid DFT is turned on
   Fraction HF Exchange ScalHFX         ....  0.167000
   Scaling of DF-GGA-X  ScalDFX         ....  0.000000
   Scaling of DF-GGA-C  ScalDFC         ....  1.000000
   Scaling of DF-LDA-C  ScalLDAC        ....  1.000000
   Perturbative correction              ....  0.000000
   Density functional embedding theory  .... OFF
 Long-range corrected/Screened/Range-Separated Hybrid DFT is turned on
   Amount of maximum screened exact exchange              ....  0.833000
   Range separation parameter mu (erf(mu*r12)/r12)        ....  0.300000
 RI-approximation to the Coulomb term is turned on
   Number of AuxJ basis functions       .... 769
   RIJ-COSX (HFX calculated with COS-X)).... on


General Settings:
 Integral files         IntName         .... GGG-H_tt_002_OptFreq
 Hartree-Fock type      HFTyp           .... RHF
 Total Charge           Charge          ....    1
 Multiplicity           Mult            ....    1
 Number of Electrons    NEL             ....  100
 Basis Dimension        Dim             ....  571
 Nuclear Repulsion      ENuc            ....    834.1978263542 Eh

Convergence Acceleration:
 DIIS                   CNVDIIS         .... on
   Start iteration      DIISMaxIt       ....    12
   Startup error        DIISStart       ....  0.200000
   # of expansion vecs  DIISMaxEq       ....     5
   Bias factor          DIISBfac        ....   1.050
   Max. coefficient     DIISMaxC        ....  10.000
 Trust-Rad. Augm. Hess. CNVTRAH         .... auto
   Auto Start mean grad. ratio tolernc. ....  1.125000
   Auto Start start iteration           ....    20
   Auto Start num. interpolation iter.  ....    10
   Max. Number of Micro iterations      ....    16
   Max. Number of Macro iterations      .... Maxiter - #DIIS iter
   Number of Davidson start vectors     ....     2
   Converg. threshold I  (grad. norm)   ....   2.000e-06
   Converg. threshold II (energy diff.) ....   1.000e-09
   Grad. Scal. Fac. for Micro threshold ....   0.100
   Minimum threshold for Micro iter.    ....   0.010
   NR start threshold (gradient norm)   ....   0.001
   Initial trust radius                 ....   0.400
   Minimum AH scaling param. (alpha)    ....   1.000
   Maximum AH scaling param. (alpha)    .... 1000.000
   Orbital update algorithm             .... Taylor
   White noise on init. David. guess    .... on
   Maximum white noise                  ....   0.010
   Quad. conv. algorithm                .... NR
 SOSCF                  CNVSOSCF        .... on
   Start iteration      SOSCFMaxIt      ....   150
   Startup grad/error   SOSCFStart      ....  0.003300
 Level Shifting         CNVShift        .... on
   Level shift para.    LevelShift      ....    0.2500
   Turn off err/grad.   ShiftErr        ....    0.0010
 Zerner damping         CNVZerner       .... off
 Static damping         CNVDamp         .... on
   Fraction old density DampFac         ....    0.7000
   Max. Damping (<1)    DampMax         ....    0.9800
   Min. Damping (>=0)   DampMin         ....    0.0000
   Turn off err/grad.   DampErr         ....    0.1000
 Fernandez-Rico         CNVRico         .... off

SCF Procedure:
 Maximum # iterations   MaxIter         ....   125
 SCF integral mode      SCFMode         .... Direct
   Integral package                     .... SHARK and LIBINT hybrid scheme
 Reset frequency        DirectResetFreq ....    20
 Integral Threshold     Thresh          ....  1.000e-12 Eh
 Primitive CutOff       TCut            ....  1.000e-14 Eh

Convergence Tolerance:
 Convergence Check Mode ConvCheckMode   .... Total+1el-Energy
 Convergence forced     ConvForced      .... 0
 Energy Change          TolE            ....  1.000e-09 Eh
 1-El. energy change                    ....  1.000e-06 Eh
 Orbital Gradient       TolG            ....  2.000e-06
 Orbital Rotation angle TolX            ....  2.000e-06
 DIIS Error             TolErr          ....  1.000e-08


Diagonalization of the overlap matrix:
Smallest eigenvalue                        ... 1.300e-04
Time for diagonalization                   ...    0.048 sec
Threshold for overlap eigenvalues          ... 1.000e-08
Number of eigenvalues below threshold      ... 0
Time for construction of square roots      ...    0.244 sec
Total time needed                          ...    0.316 sec

Time for model grid setup =    0.292 sec

------------------------------
INITIAL GUESS: MODEL POTENTIAL
------------------------------
Loading Hartree-Fock densities                     ... done
Calculating cut-offs                               ... done
Initializing the effective Hamiltonian             ... done
Setting up the integral package (SHARK)            ... done
Starting the Coulomb interaction                   ... done (   0.5 sec)
Reading the grid                                   ... done
Mapping shells                                     ... done
Starting the XC term evaluation                    ... done (   0.1 sec)
  promolecular density results
     # of electrons  =    100.993691356
     EX              =    -58.966866228
     EC              =     -4.266304074
     EX+EC           =    -63.233170302
Transforming the Hamiltonian                       ... done (   0.1 sec)
Diagonalizing the Hamiltonian                      ... done (   0.1 sec)
Back transforming the eigenvectors                 ... done (   0.0 sec)
Now organizing SCF variables                       ... done
                      ------------------
                      INITIAL GUESS DONE (   1.1 sec)
                      ------------------
-------------------
DFT GRID GENERATION
-------------------

General Integration Accuracy     IntAcc      ... 4.959
Radial Grid Type                 RadialGrid  ... OptM3 with GC (2021)
Angular Grid (max. ang.)         AngularGrid ... 6 (Lebedev-590)
Angular grid pruning method      GridPruning ... 4 (adaptive)
Weight generation scheme         WeightScheme... Becke
Basis function cutoff            BFCut       ... 1.0000e-12
Integration weight cutoff        WCut        ... 1.0000e-14
Angular grids for H and He will be reduced by one unit
Partially contracted basis set               ... off
Rotationally invariant grid construction     ... off

Total number of grid points                  ...   289451
Total number of batches                      ...     4535
Average number of points per batch           ...       63
Average number of grid points per atom       ...    11578
Time for grid setup =    3.278 sec

--------------------
COSX GRID GENERATION
--------------------

GRIDX 1
-------
General Integration Accuracy     IntAcc      ... 4.020
Radial Grid Type                 RadialGrid  ... OptM3 with GC (2021)
Angular Grid (max. ang.)         AngularGrid ... 2 (Lebedev-110)
Angular grid pruning method      GridPruning ... 4 (adaptive)
Weight generation scheme         WeightScheme... Becke
Basis function cutoff            BFCut       ... 1.0000e-12
Integration weight cutoff        WCut        ... 1.0000e-14
Angular grids for H and He will be reduced by one unit
Partially contracted basis set               ... on
Rotationally invariant grid construction     ... off

Total number of grid points                  ...    32309
Total number of batches                      ...      518
Average number of points per batch           ...       62
Average number of grid points per atom       ...     1292
UseSFitting                                  ... on

GRIDX 2
-------
General Integration Accuracy     IntAcc      ... 4.338
Radial Grid Type                 RadialGrid  ... OptM3 with GC (2021)
Angular Grid (max. ang.)         AngularGrid ... 3 (Lebedev-194)
Angular grid pruning method      GridPruning ... 4 (adaptive)
Weight generation scheme         WeightScheme... Becke
Basis function cutoff            BFCut       ... 1.0000e-12
Integration weight cutoff        WCut        ... 1.0000e-14
Angular grids for H and He will be reduced by one unit
Partially contracted basis set               ... on
Rotationally invariant grid construction     ... off

Total number of grid points                  ...    70847
Total number of batches                      ...     1124
Average number of points per batch           ...       63
Average number of grid points per atom       ...     2834
UseSFitting                                  ... on

GRIDX 3
-------
General Integration Accuracy     IntAcc      ... 4.871
Radial Grid Type                 RadialGrid  ... OptM3 with GC (2021)
Angular Grid (max. ang.)         AngularGrid ... 4 (Lebedev-302)
Angular grid pruning method      GridPruning ... 4 (adaptive)
Weight generation scheme         WeightScheme... Becke
Basis function cutoff            BFCut       ... 1.0000e-12
Integration weight cutoff        WCut        ... 1.0000e-14
Angular grids for H and He will be reduced by one unit
Partially contracted basis set               ... on
Rotationally invariant grid construction     ... off

Total number of grid points                  ...   134232
Total number of batches                      ...     2110
Average number of points per batch           ...       63
Average number of grid points per atom       ...     5369
UseSFitting                                  ... on

Time for X-Grid setup             =    2.512 sec

--------------
SCF ITERATIONS
--------------
ITER       Energy         Delta-E        Max-DP      RMS-DP      [F,P]     Damp
               ***  Starting incremental Fock matrix formation  ***
  0   -701.1581680760   0.000000000000 0.03394262  0.00045247  0.3436562 0.7000
  1   -701.2069788512  -0.048810775208 0.03653343  0.00040681  0.2341667 0.7000
                               ***Turning on DIIS***
  2   -701.2348998705  -0.027921019368 0.03409119  0.00031538  0.1631764 0.7000
  3   -701.2532399110  -0.018340040507 0.03130988  0.00025279  0.1124881 0.7000
  4   -701.2661346948  -0.012894783765 0.08310759  0.00066711  0.0774252 0.0000
                      *** Initiating the SOSCF procedure ***
                           *** Shutting down DIIS ***
                      *** Re-Reading the Fockian *** 
                      *** Removing any level shift *** 
ITER      Energy       Delta-E        Grad      Rot      Max-DP    RMS-DP
  5   -701.29727506  -0.0311403685  0.001936  0.001936  0.008236  0.000069
               *** Restarting incremental Fock matrix formation ***
  6   -701.29740953  -0.0001344709  0.000892  0.002033  0.005263  0.000042
  7   -701.29744816  -0.0000386290  0.000689  0.002034  0.003513  0.000031
  8   -701.29745713  -0.0000089668  0.000398  0.000575  0.000769  0.000010
  9   -701.29745966  -0.0000025307  0.000103  0.000079  0.000579  0.000005
 10   -701.29745988  -0.0000002223  0.000032  0.000084  0.000204  0.000002
 11   -701.29746004  -0.0000001558  0.000011  0.000033  0.000017  0.000000
 12   -701.29746004  -0.0000000045  0.000005  0.000013  0.000021  0.000000
 13   -701.29746005  -0.0000000021  0.000003  0.000011  0.000012  0.000000
 14   -701.29746005  -0.0000000002  0.000002  0.000003  0.000003  0.000000
                  ***Gradient check signals convergence***
              ***Rediagonalizing the Fockian in SOSCF/NRSCF***

               *****************************************************
               *                     SUCCESS                       *
               *           SCF CONVERGED AFTER  15 CYCLES          *
               *****************************************************

Old exchange energy                            =    -27.830757386 Eh
New exchange energy                            =    -27.830755087 Eh
Exchange energy change after final integration =      0.000002299 Eh
Total energy after final integration           =   -701.297457747 Eh
Final COS-X integration done in                =    29.411 sec

----------------
TOTAL SCF ENERGY
----------------

Total Energy       :         -701.29745775 Eh          -19083.27400 eV

Components:
Nuclear Repulsion  :          834.19782635 Eh           22699.67688 eV
Electronic Energy  :        -1535.49528410 Eh          -41782.95088 eV
One Electron Energy:        -2597.02087011 Eh          -70668.53059 eV
Two Electron Energy:         1061.52558601 Eh           28885.57971 eV
Max COSX asymmetry :            0.00000103 Eh               0.00003 eV

Virial components:
Potential Energy   :        -1399.25470900 Eh          -38075.65636 eV
Kinetic Energy     :          697.95725125 Eh           18992.38236 eV
Virial Ratio       :            2.00478569


DFT components:
N(Alpha)           :       49.999998565511 electrons
N(Beta)            :       49.999998565511 electrons
N(Total)           :       99.999997131022 electrons
E(X)               :      -60.044770090209 Eh       
E(C)               :       -4.264384741822 Eh       
E(XC)              :      -64.309154832031 Eh       
DFET-embed. en.    :        0.000000000000 Eh       

---------------
SCF CONVERGENCE
---------------

  Last Energy change         ...    3.5811e-11  Tolerance :   1.0000e-09
  Last MAX-Density change    ...    2.2204e-15  Tolerance :   1.0000e-08
  Last RMS-Density change    ...    1.4433e-17  Tolerance :   1.0000e-09
  Last Orbital Gradient      ...    3.4931e-07  Tolerance :   2.0000e-06
  Last Orbital Rotation      ...    6.3754e-07  Tolerance :   2.0000e-06

             **** THE GBW FILE WAS UPDATED (GGG-H_tt_002_OptFreq.gbw) ****
             **** DENSITY GGG-H_tt_002_OptFreq.scfp WAS UPDATED ****
             **** ENERGY FILE WAS UPDATED (GGG-H_tt_002_OptFreq.en.tmp) ****
             **** THE GBW FILE WAS UPDATED (GGG-H_tt_002_OptFreq.gbw) ****
             **** DENSITY GGG-H_tt_002_OptFreq.scfp WAS UPDATED ****
----------------
ORBITAL ENERGIES
----------------

  NO   OCC          E(Eh)            E(eV) 
   0   2.0000     -19.389184      -527.6065 
   1   2.0000     -19.352812      -526.6168 
   2   2.0000     -19.347948      -526.4844 
   3   2.0000     -19.322476      -525.7913 
   4   2.0000     -14.690624      -399.7522 
   5   2.0000     -14.600001      -397.2862 
   6   2.0000     -14.596877      -397.2012 
   7   2.0000     -10.547869      -287.0221 
   8   2.0000     -10.545050      -286.9454 
   9   2.0000     -10.534998      -286.6719 
  10   2.0000     -10.511680      -286.0374 
  11   2.0000     -10.476682      -285.0850 
  12   2.0000     -10.459642      -284.6213 
  13   2.0000      -1.362159       -37.0662 
  14   2.0000      -1.348447       -36.6931 
  15   2.0000      -1.329977       -36.1905 
  16   2.0000      -1.284733       -34.9594 
  17   2.0000      -1.270998       -34.5856 
  18   2.0000      -1.221663       -33.2431 
  19   2.0000      -1.214238       -33.0411 
  20   2.0000      -1.056083       -28.7375 
  21   2.0000      -1.029166       -28.0050 
  22   2.0000      -0.980960       -26.6933 
  23   2.0000      -0.889165       -24.1954 
  24   2.0000      -0.875246       -23.8167 
  25   2.0000      -0.870010       -23.6742 
  26   2.0000      -0.862164       -23.4607 
  27   2.0000      -0.844519       -22.9805 
  28   2.0000      -0.804260       -21.8850 
  29   2.0000      -0.790013       -21.4973 
  30   2.0000      -0.765695       -20.8356 
  31   2.0000      -0.751586       -20.4517 
  32   2.0000      -0.741783       -20.1849 
  33   2.0000      -0.735175       -20.0051 
  34   2.0000      -0.721169       -19.6240 
  35   2.0000      -0.708864       -19.2892 
  36   2.0000      -0.702022       -19.1030 
  37   2.0000      -0.690427       -18.7875 
  38   2.0000      -0.681304       -18.5392 
  39   2.0000      -0.669071       -18.2063 
  40   2.0000      -0.653926       -17.7942 
  41   2.0000      -0.639967       -17.4144 
  42   2.0000      -0.632743       -17.2178 
  43   2.0000      -0.622794       -16.9471 
  44   2.0000      -0.556566       -15.1449 
  45   2.0000      -0.551787       -15.0149 
  46   2.0000      -0.538070       -14.6416 
  47   2.0000      -0.524480       -14.2718 
  48   2.0000      -0.518612       -14.1121 
  49   2.0000      -0.508437       -13.8353 
  50   0.0000      -0.085406        -2.3240 
  51   0.0000      -0.062702        -1.7062 
  52   0.0000      -0.055255        -1.5036 
  53   0.0000      -0.031187        -0.8486 
  54   0.0000      -0.024674        -0.6714 
  55   0.0000      -0.015757        -0.4288 
  56   0.0000      -0.005192        -0.1413 
  57   0.0000       0.009222         0.2509 
  58   0.0000       0.013506         0.3675 
  59   0.0000       0.023423         0.6374 
  60   0.0000       0.038746         1.0543 
  61   0.0000       0.049526         1.3477 
  62   0.0000       0.062723         1.7068 
  63   0.0000       0.070846         1.9278 
  64   0.0000       0.079401         2.1606 
  65   0.0000       0.080517         2.1910 
  66   0.0000       0.091847         2.4993 
  67   0.0000       0.099900         2.7184 
  68   0.0000       0.107890         2.9358 
  69   0.0000       0.119722         3.2578 
  70   0.0000       0.122300         3.3280 
  71   0.0000       0.129478         3.5233 
  72   0.0000       0.145658         3.9636 
  73   0.0000       0.156478         4.2580 
  74   0.0000       0.159639         4.3440 
  75   0.0000       0.171263         4.6603 
  76   0.0000       0.176208         4.7949 
  77   0.0000       0.187939         5.1141 
  78   0.0000       0.205659         5.5963 
  79   0.0000       0.218589         5.9481 
  80   0.0000       0.223366         6.0781 
  81   0.0000       0.226692         6.1686 
  82   0.0000       0.235641         6.4121 
  83   0.0000       0.245835         6.6895 
  84   0.0000       0.253002         6.8845 
  85   0.0000       0.259369         7.0578 
  86   0.0000       0.268014         7.2930 
  87   0.0000       0.278881         7.5887 
  88   0.0000       0.284913         7.7529 
  89   0.0000       0.291071         7.9205 
  90   0.0000       0.308510         8.3950 
  91   0.0000       0.313476         8.5301 
  92   0.0000       0.315328         8.5805 
  93   0.0000       0.325774         8.8648 
  94   0.0000       0.329950         8.9784 
  95   0.0000       0.339104         9.2275 
  96   0.0000       0.340948         9.2777 
  97   0.0000       0.350757         9.5446 
  98   0.0000       0.358484         9.7548 
  99   0.0000       0.362413         9.8618 
 100   0.0000       0.368248        10.0205 
 101   0.0000       0.372001        10.1227 
 102   0.0000       0.376876        10.2553 
 103   0.0000       0.381829        10.3901 
 104   0.0000       0.388611        10.5746 
 105   0.0000       0.396882        10.7997 
 106   0.0000       0.405971        11.0470 
 107   0.0000       0.408414        11.1135 
 108   0.0000       0.412331        11.2201 
 109   0.0000       0.419845        11.4246 
 110   0.0000       0.438798        11.9403 
 111   0.0000       0.440541        11.9877 
 112   0.0000       0.447091        12.1660 
 113   0.0000       0.450214        12.2509 
 114   0.0000       0.467145        12.7117 
 115   0.0000       0.473986        12.8978 
 116   0.0000       0.485323        13.2063 
 117   0.0000       0.499603        13.5949 
 118   0.0000       0.501863        13.6564 
 119   0.0000       0.514839        14.0095 
 120   0.0000       0.522084        14.2066 
 121   0.0000       0.533334        14.5128 
 122   0.0000       0.544770        14.8240 
 123   0.0000       0.562435        15.3046 
 124   0.0000       0.565042        15.3756 
 125   0.0000       0.571015        15.5381 
 126   0.0000       0.591231        16.0882 
 127   0.0000       0.595721        16.2104 
 128   0.0000       0.605356        16.4726 
 129   0.0000       0.613954        16.7065 
 130   0.0000       0.623197        16.9581 
 131   0.0000       0.639413        17.3993 
 132   0.0000       0.646558        17.5937 
 133   0.0000       0.655624        17.8404 
 134   0.0000       0.667271        18.1574 
 135   0.0000       0.676603        18.4113 
 136   0.0000       0.695447        18.9241 
 137   0.0000       0.698556        19.0087 
 138   0.0000       0.708735        19.2857 
 139   0.0000       0.721032        19.6203 
 140   0.0000       0.728103        19.8127 
 141   0.0000       0.747930        20.3522 
 142   0.0000       0.762285        20.7428 
 143   0.0000       0.770917        20.9777 
 144   0.0000       0.782166        21.2838 
 145   0.0000       0.799447        21.7541 
 146   0.0000       0.820662        22.3313 
 147   0.0000       0.828700        22.5501 
 148   0.0000       0.836789        22.7702 
 149   0.0000       0.850752        23.1502 
 150   0.0000       0.859320        23.3833 
 151   0.0000       0.871450        23.7134 
 152   0.0000       0.882240        24.0070 
 153   0.0000       0.887260        24.1436 
 154   0.0000       0.893846        24.3228 
 155   0.0000       0.901806        24.5394 
 156   0.0000       0.910335        24.7715 
 157   0.0000       0.921836        25.0844 
 158   0.0000       0.935438        25.4546 
 159   0.0000       0.939428        25.5631 
 160   0.0000       0.949204        25.8291 
 161   0.0000       0.968730        26.3605 
 162   0.0000       0.978794        26.6343 
 163   0.0000       0.982627        26.7386 
 164   0.0000       0.986617        26.8472 
 165   0.0000       0.998599        27.1733 
 166   0.0000       1.009664        27.4744 
 167   0.0000       1.016533        27.6613 
 168   0.0000       1.023998        27.8644 
 169   0.0000       1.035118        28.1670 
 170   0.0000       1.052843        28.6493 
 171   0.0000       1.065778        29.0013 
 172   0.0000       1.075821        29.2746 
 173   0.0000       1.085642        29.5418 
 174   0.0000       1.093443        29.7541 
 175   0.0000       1.095048        29.7978 
 176   0.0000       1.109879        30.2014 
 177   0.0000       1.113988        30.3132 
 178   0.0000       1.129564        30.7370 
 179   0.0000       1.135034        30.8858 
 180   0.0000       1.164362        31.6839 
 181   0.0000       1.167808        31.7777 
 182   0.0000       1.181304        32.1449 
 183   0.0000       1.189431        32.3661 
 184   0.0000       1.194158        32.4947 
 185   0.0000       1.205309        32.7981 
 186   0.0000       1.213220        33.0134 
 187   0.0000       1.229157        33.4471 
 188   0.0000       1.239425        33.7265 
 189   0.0000       1.256190        34.1827 
 190   0.0000       1.259892        34.2834 
 191   0.0000       1.262420        34.3522 
 192   0.0000       1.283215        34.9180 
 193   0.0000       1.312197        35.7067 
 194   0.0000       1.332732        36.2655 
 195   0.0000       1.346644        36.6440 
 196   0.0000       1.363092        37.0916 
 197   0.0000       1.368091        37.2277 
 198   0.0000       1.373979        37.3879 
 199   0.0000       1.379683        37.5431 
 200   0.0000       1.385078        37.6899 
 201   0.0000       1.393484        37.9186 
 202   0.0000       1.403626        38.1946 
 203   0.0000       1.411046        38.3965 
 204   0.0000       1.426733        38.8234 
 205   0.0000       1.434424        39.0326 
 206   0.0000       1.447205        39.3805 
 207   0.0000       1.452327        39.5198 
 208   0.0000       1.461233        39.7622 
 209   0.0000       1.480001        40.2729 
 210   0.0000       1.486819        40.4584 
 211   0.0000       1.497543        40.7502 
 212   0.0000       1.500516        40.8311 
 213   0.0000       1.527285        41.5595 
 214   0.0000       1.536397        41.8075 
 215   0.0000       1.548324        42.1321 
 216   0.0000       1.553843        42.2822 
 217   0.0000       1.568081        42.6697 
 218   0.0000       1.587416        43.1958 
 219   0.0000       1.596369        43.4394 
 220   0.0000       1.604082        43.6493 
 221   0.0000       1.609410        43.7943 
 222   0.0000       1.637704        44.5642 
 223   0.0000       1.648206        44.8500 
 224   0.0000       1.655983        45.0616 
 225   0.0000       1.664900        45.3042 
 226   0.0000       1.698674        46.2233 
 227   0.0000       1.705654        46.4132 
 228   0.0000       1.710434        46.5433 
 229   0.0000       1.719413        46.7876 
 230   0.0000       1.748919        47.5905 
 231   0.0000       1.782850        48.5138 
 232   0.0000       1.793377        48.8003 
 233   0.0000       1.820934        49.5501 
 234   0.0000       1.842989        50.1503 
 235   0.0000       1.858524        50.5730 
 236   0.0000       1.874711        51.0135 
 237   0.0000       1.879939        51.1557 
 238   0.0000       1.892585        51.4998 
 239   0.0000       1.904392        51.8211 
 240   0.0000       1.918538        52.2061 
 241   0.0000       1.925578        52.3976 
 242   0.0000       1.943787        52.8931 
 243   0.0000       1.972061        53.6625 
 244   0.0000       2.004792        54.5532 
 245   0.0000       2.012617        54.7661 
 246   0.0000       2.027759        55.1781 
 247   0.0000       2.042893        55.5899 
 248   0.0000       2.049630        55.7733 
 249   0.0000       2.078160        56.5496 
 250   0.0000       2.103261        57.2326 
 251   0.0000       2.120395        57.6989 
 252   0.0000       2.143331        58.3230 
 253   0.0000       2.160871        58.8003 
 254   0.0000       2.184413        59.4409 
 255   0.0000       2.188308        59.5469 
 256   0.0000       2.226392        60.5832 
 257   0.0000       2.237732        60.8918 
 258   0.0000       2.257575        61.4318 
 259   0.0000       2.278093        61.9901 
 260   0.0000       2.292972        62.3949 
 261   0.0000       2.307635        62.7939 
 262   0.0000       2.316680        63.0401 
 263   0.0000       2.365443        64.3670 
 264   0.0000       2.367039        64.4104 
 265   0.0000       2.405053        65.4448 
 266   0.0000       2.419197        65.8297 
 267   0.0000       2.432950        66.2039 
 268   0.0000       2.469250        67.1917 
 269   0.0000       2.494735        67.8852 
 270   0.0000       2.497524        67.9611 
 271   0.0000       2.509579        68.2891 
 272   0.0000       2.521072        68.6019 
 273   0.0000       2.533396        68.9372 
 274   0.0000       2.539000        69.0897 
 275   0.0000       2.564783        69.7913 
 276   0.0000       2.590342        70.4868 
 277   0.0000       2.594214        70.5921 
 278   0.0000       2.606551        70.9278 
 279   0.0000       2.617174        71.2169 
 280   0.0000       2.630939        71.5915 
 281   0.0000       2.641867        71.8889 
 282   0.0000       2.648860        72.0791 
 283   0.0000       2.661184        72.4145 
 284   0.0000       2.673647        72.7536 
 285   0.0000       2.699831        73.4661 
 286   0.0000       2.708278        73.6960 
 287   0.0000       2.719246        73.9945 
 288   0.0000       2.725341        74.1603 
 289   0.0000       2.736029        74.4511 
 290   0.0000       2.759985        75.1030 
 291   0.0000       2.776581        75.5546 
 292   0.0000       2.781928        75.7001 
 293   0.0000       2.795895        76.0802 
 294   0.0000       2.806764        76.3759 
 295   0.0000       2.818057        76.6832 
 296   0.0000       2.823575        76.8334 
 297   0.0000       2.826907        76.9240 
 298   0.0000       2.855587        77.7045 
 299   0.0000       2.868369        78.0523 
 300   0.0000       2.880379        78.3791 
 301   0.0000       2.893331        78.7315 
 302   0.0000       2.895332        78.7860 
 303   0.0000       2.909427        79.1695 
 304   0.0000       2.926154        79.6247 
 305   0.0000       2.938337        79.9562 
 306   0.0000       2.943052        80.0845 
 307   0.0000       2.956229        80.4431 
 308   0.0000       2.960098        80.5484 
 309   0.0000       2.974859        80.9500 
 310   0.0000       2.981229        81.1234 
 311   0.0000       2.998802        81.6016 
 312   0.0000       3.010033        81.9071 
 313   0.0000       3.025140        82.3182 
 314   0.0000       3.032099        82.5076 
 315   0.0000       3.053752        83.0968 
 316   0.0000       3.058632        83.2296 
 317   0.0000       3.060863        83.2903 
 318   0.0000       3.073777        83.6417 
 319   0.0000       3.085732        83.9670 
 320   0.0000       3.093557        84.1800 
 321   0.0000       3.097811        84.2957 
 322   0.0000       3.110453        84.6397 
 323   0.0000       3.113276        84.7165 
 324   0.0000       3.131513        85.2128 
 325   0.0000       3.135226        85.3138 
 326   0.0000       3.149296        85.6967 
 327   0.0000       3.167049        86.1798 
 328   0.0000       3.171972        86.3138 
 329   0.0000       3.180624        86.5492 
 330   0.0000       3.183467        86.6265 
 331   0.0000       3.192298        86.8669 
 332   0.0000       3.201677        87.1220 
 333   0.0000       3.211959        87.4018 
 334   0.0000       3.219708        87.6127 
 335   0.0000       3.224774        87.7506 
 336   0.0000       3.242349        88.2288 
 337   0.0000       3.251227        88.4704 
 338   0.0000       3.260990        88.7360 
 339   0.0000       3.270316        88.9898 
 340   0.0000       3.293096        89.6097 
 341   0.0000       3.301869        89.8484 
 342   0.0000       3.304853        89.9296 
 343   0.0000       3.317485        90.2734 
 344   0.0000       3.341109        90.9162 
 345   0.0000       3.352476        91.2255 
 346   0.0000       3.362478        91.4977 
 347   0.0000       3.371167        91.7341 
 348   0.0000       3.375509        91.8523 
 349   0.0000       3.390853        92.2698 
 350   0.0000       3.395235        92.3890 
 351   0.0000       3.407301        92.7174 
 352   0.0000       3.417150        92.9854 
 353   0.0000       3.424094        93.1743 
 354   0.0000       3.434166        93.4484 
 355   0.0000       3.447188        93.8028 
 356   0.0000       3.454705        94.0073 
 357   0.0000       3.464124        94.2636 
 358   0.0000       3.480573        94.7112 
 359   0.0000       3.494820        95.0989 
 360   0.0000       3.500735        95.2598 
 361   0.0000       3.516979        95.7019 
 362   0.0000       3.530314        96.0647 
 363   0.0000       3.546366        96.5015 
 364   0.0000       3.548811        96.5681 
 365   0.0000       3.557123        96.7942 
 366   0.0000       3.565690        97.0274 
 367   0.0000       3.568518        97.1043 
 368   0.0000       3.582787        97.4926 
 369   0.0000       3.590081        97.6911 
 370   0.0000       3.606032        98.1251 
 371   0.0000       3.612056        98.2890 
 372   0.0000       3.624004        98.6142 
 373   0.0000       3.642194        99.1091 
 374   0.0000       3.648780        99.2884 
 375   0.0000       3.666238        99.7634 
 376   0.0000       3.682353       100.2019 
 377   0.0000       3.690938       100.4355 
 378   0.0000       3.701338       100.7185 
 379   0.0000       3.723705       101.3272 
 380   0.0000       3.756540       102.2206 
 381   0.0000       3.778799       102.8264 
 382   0.0000       3.780564       102.8744 
 383   0.0000       3.791216       103.1642 
 384   0.0000       3.793124       103.2161 
 385   0.0000       3.808696       103.6399 
 386   0.0000       3.819026       103.9210 
 387   0.0000       3.847502       104.6959 
 388   0.0000       3.855419       104.9113 
 389   0.0000       3.859920       105.0338 
 390   0.0000       3.883969       105.6882 
 391   0.0000       3.894955       105.9871 
 392   0.0000       3.905708       106.2797 
 393   0.0000       3.912884       106.4750 
 394   0.0000       3.943519       107.3086 
 395   0.0000       3.952870       107.5631 
 396   0.0000       3.956979       107.6749 
 397   0.0000       3.960010       107.7573 
 398   0.0000       3.970188       108.0343 
 399   0.0000       3.994999       108.7094 
 400   0.0000       4.003492       108.9406 
 401   0.0000       4.017111       109.3111 
 402   0.0000       4.024211       109.5044 
 403   0.0000       4.029546       109.6495 
 404   0.0000       4.040071       109.9359 
 405   0.0000       4.061447       110.5176 
 406   0.0000       4.068019       110.6964 
 407   0.0000       4.100321       111.5754 
 408   0.0000       4.108783       111.8057 
 409   0.0000       4.118148       112.0605 
 410   0.0000       4.121947       112.1639 
 411   0.0000       4.128170       112.3332 
 412   0.0000       4.162872       113.2775 
 413   0.0000       4.171509       113.5125 
 414   0.0000       4.179210       113.7221 
 415   0.0000       4.183901       113.8497 
 416   0.0000       4.197530       114.2206 
 417   0.0000       4.203509       114.3833 
 418   0.0000       4.216719       114.7428 
 419   0.0000       4.232941       115.1842 
 420   0.0000       4.240189       115.3814 
 421   0.0000       4.258638       115.8834 
 422   0.0000       4.265278       116.0641 
 423   0.0000       4.276494       116.3693 
 424   0.0000       4.293253       116.8253 
 425   0.0000       4.312487       117.3487 
 426   0.0000       4.320165       117.5577 
 427   0.0000       4.320467       117.5659 
 428   0.0000       4.344604       118.2227 
 429   0.0000       4.392310       119.5208 
 430   0.0000       4.414507       120.1249 
 431   0.0000       4.428356       120.5017 
 432   0.0000       4.462085       121.4195 
 433   0.0000       4.483189       121.9938 
 434   0.0000       4.494214       122.2938 
 435   0.0000       4.502747       122.5260 
 436   0.0000       4.522153       123.0540 
 437   0.0000       4.567474       124.2873 
 438   0.0000       4.575546       124.5069 
 439   0.0000       4.589783       124.8944 
 440   0.0000       4.622521       125.7852 
 441   0.0000       4.643245       126.3491 
 442   0.0000       4.647329       126.4602 
 443   0.0000       4.678052       127.2963 
 444   0.0000       4.685302       127.4936 
 445   0.0000       4.694166       127.7347 
 446   0.0000       4.710126       128.1690 
 447   0.0000       4.728876       128.6792 
 448   0.0000       4.749090       129.2293 
 449   0.0000       4.761835       129.5761 
 450   0.0000       4.794333       130.4604 
 451   0.0000       4.807413       130.8164 
 452   0.0000       4.823293       131.2485 
 453   0.0000       4.827883       131.3734 
 454   0.0000       4.842582       131.7734 
 455   0.0000       4.851007       132.0026 
 456   0.0000       4.868241       132.4716 
 457   0.0000       4.874639       132.6457 
 458   0.0000       4.901171       133.3677 
 459   0.0000       4.920309       133.8884 
 460   0.0000       4.929669       134.1431 
 461   0.0000       4.947770       134.6357 
 462   0.0000       4.973591       135.3383 
 463   0.0000       4.988186       135.7354 
 464   0.0000       5.020228       136.6073 
 465   0.0000       5.046343       137.3180 
 466   0.0000       5.059790       137.6839 
 467   0.0000       5.070219       137.9677 
 468   0.0000       5.094224       138.6209 
 469   0.0000       5.099666       138.7690 
 470   0.0000       5.114509       139.1729 
 471   0.0000       5.137276       139.7924 
 472   0.0000       5.152554       140.2081 
 473   0.0000       5.154836       140.2702 
 474   0.0000       5.159686       140.4022 
 475   0.0000       5.170080       140.6850 
 476   0.0000       5.181458       140.9946 
 477   0.0000       5.200654       141.5170 
 478   0.0000       5.214019       141.8807 
 479   0.0000       5.234974       142.4509 
 480   0.0000       5.240431       142.5994 
 481   0.0000       5.257302       143.0585 
 482   0.0000       5.282166       143.7350 
 483   0.0000       5.306090       144.3860 
 484   0.0000       5.312843       144.5698 
 485   0.0000       5.327804       144.9769 
 486   0.0000       5.353314       145.6711 
 487   0.0000       5.377675       146.3340 
 488   0.0000       5.387424       146.5993 
 489   0.0000       5.397112       146.8629 
 490   0.0000       5.443977       148.1381 
 491   0.0000       5.459858       148.5703 
 492   0.0000       5.462446       148.6407 
 493   0.0000       5.483435       149.2119 
 494   0.0000       5.500284       149.6703 
 495   0.0000       5.515400       150.0817 
 496   0.0000       5.521664       150.2521 
 497   0.0000       5.530051       150.4803 
 498   0.0000       5.558724       151.2606 
 499   0.0000       5.571305       151.6029 
 500   0.0000       5.597390       152.3127 
 501   0.0000       5.601440       152.4229 
 502   0.0000       5.618540       152.8882 
 503   0.0000       5.630668       153.2183 
 504   0.0000       5.659121       153.9925 
 505   0.0000       5.680623       154.5776 
 506   0.0000       5.697575       155.0389 
 507   0.0000       5.715351       155.5226 
 508   0.0000       5.759861       156.7338 
 509   0.0000       5.770094       157.0122 
 510   0.0000       5.800251       157.8328 
 511   0.0000       5.862818       159.5354 
 512   0.0000       5.872060       159.7869 
 513   0.0000       5.910594       160.8354 
 514   0.0000       5.945111       161.7747 
 515   0.0000       5.952916       161.9871 
 516   0.0000       5.985507       162.8739 
 517   0.0000       5.989046       162.9702 
 518   0.0000       6.022109       163.8699 
 519   0.0000       6.083140       165.5306 
 520   0.0000       6.123269       166.6226 
 521   0.0000       6.129612       166.7952 
 522   0.0000       6.135454       166.9542 
 523   0.0000       6.150407       167.3611 
 524   0.0000       6.291839       171.2097 
 525   0.0000       6.328035       172.1946 
 526   0.0000       6.337601       172.4549 
 527   0.0000       6.350904       172.8169 
 528   0.0000       6.378356       173.5639 
 529   0.0000       6.404909       174.2864 
 530   0.0000       6.406841       174.3390 
 531   0.0000       6.413525       174.5209 
 532   0.0000       6.431212       175.0022 
 533   0.0000       6.449522       175.5004 
 534   0.0000       6.482729       176.4040 
 535   0.0000       6.500569       176.8895 
 536   0.0000       6.518308       177.3722 
 537   0.0000       6.558456       178.4647 
 538   0.0000       6.566967       178.6963 
 539   0.0000       6.591043       179.3514 
 540   0.0000       6.649240       180.9350 
 541   0.0000       6.685309       181.9165 
 542   0.0000       6.701831       182.3661 
 543   0.0000       6.738810       183.3723 
 544   0.0000       6.814166       185.4229 
 545   0.0000       6.831875       185.9048 
 546   0.0000       6.843552       186.2225 
 547   0.0000       6.847540       186.3310 
 548   0.0000       6.916879       188.2179 
 549   0.0000       6.967337       189.5909 
 550   0.0000       7.044225       191.6831 
 551   0.0000       7.093360       193.0201 
 552   0.0000       7.112119       193.5306 
 553   0.0000       7.118532       193.7051 
 554   0.0000       7.220556       196.4813 
 555   0.0000       7.441004       202.4800 
 556   0.0000       7.480727       203.5609 
 557   0.0000       7.491245       203.8471 
 558   0.0000      23.124725       629.2558 
 559   0.0000      23.133708       629.5002 
 560   0.0000      23.235757       632.2771 
 561   0.0000      23.255860       632.8241 
 562   0.0000      23.293787       633.8562 
 563   0.0000      23.409954       637.0172 
 564   0.0000      32.724253       890.4722 
 565   0.0000      32.790803       892.2831 
 566   0.0000      32.944870       896.4755 
 567   0.0000      43.838052      1192.8940 
 568   0.0000      43.861313      1193.5270 
 569   0.0000      43.957349      1196.1403 
 570   0.0000      44.007083      1197.4936 

                    ********************************
                    * MULLIKEN POPULATION ANALYSIS *
                    ********************************

-----------------------
MULLIKEN ATOMIC CHARGES
-----------------------
   0 N :   -0.168815
   1 H :    0.197870
   2 C :   -0.063085
   3 C :    0.301226
   4 H :    0.135508
   5 H :    0.137143
   6 O :   -0.272484
   7 C :    0.330932
   8 C :   -0.088259
   9 O :   -0.473841
  10 N :   -0.181583
  11 H :    0.151883
  12 H :    0.161147
  13 H :    0.183111
  14 C :    0.206470
  15 C :   -0.140950
  16 O :   -0.326934
  17 H :    0.145024
  18 H :    0.171929
  19 O :   -0.301136
  20 H :    0.253666
  21 N :   -0.075781
  22 H :    0.241979
  23 H :    0.234283
  24 H :    0.240695
Sum of atomic charges:    1.0000000

--------------------------------
MULLIKEN REDUCED ORBITAL CHARGES
--------------------------------
  0 N s       :     3.422799  s :     3.422799
      pz      :     1.064970  p :     3.685663
      px      :     1.329944
      py      :     1.290749
      dz2     :     0.015383  d :     0.056454
      dxz     :     0.014099
      dyz     :     0.015228
      dx2y2   :     0.004625
      dxy     :     0.007119
      f0      :     0.000694  f :     0.003899
      f+1     :     0.000638
      f-1     :     0.000764
      f+2     :     0.000313
      f-2     :     0.000485
      f+3     :     0.000477
      f-3     :     0.000528
  1 H s       :     0.732032  s :     0.732032
      pz      :     0.016742  p :     0.064667
      px      :     0.023831
      py      :     0.024094
      dz2     :     0.000752  d :     0.005430
      dxz     :     0.000857
      dyz     :     0.000924
      dx2y2   :     0.001875
      dxy     :     0.001022
  2 C s       :     3.158335  s :     3.158335
      pz      :     0.720015  p :     2.788628
      px      :     1.046521
      py      :     1.022092
      dz2     :     0.023630  d :     0.108235
      dxz     :     0.025570
      dyz     :     0.029858
      dx2y2   :     0.018018
      dxy     :     0.011159
      f0      :     0.002064  f :     0.007886
      f+1     :     0.001906
      f-1     :     0.001943
      f+2     :     0.000298
      f-2     :     0.000581
      f+3     :     0.000616
      f-3     :     0.000478
  3 C s       :     3.069655  s :     3.069655
      pz      :     0.758676  p :     2.333538
      px      :     0.770683
      py      :     0.804178
      dz2     :     0.056573  d :     0.271984
      dxz     :     0.084865
      dyz     :     0.085511
      dx2y2   :     0.030316
      dxy     :     0.014719
      f0      :     0.004075  f :     0.023596
      f+1     :     0.006047
      f-1     :     0.005880
      f+2     :     0.002918
      f-2     :     0.002072
      f+3     :     0.001289
      f-3     :     0.001315
  4 H s       :     0.828290  s :     0.828290
      pz      :     0.007575  p :     0.034112
      px      :     0.017567
      py      :     0.008971
      dz2     :     0.000300  d :     0.002089
      dxz     :     0.000681
      dyz     :     0.000059
      dx2y2   :     0.000323
      dxy     :     0.000727
  5 H s       :     0.826785  s :     0.826785
      pz      :     0.008745  p :     0.033985
      px      :     0.009321
      py      :     0.015919
      dz2     :     0.000536  d :     0.002086
      dxz     :     0.000137
      dyz     :     0.000455
      dx2y2   :     0.000377
      dxy     :     0.000581
  6 O s       :     3.802810  s :     3.802810
      pz      :     1.323620  p :     4.434811
      px      :     1.544915
      py      :     1.566276
      dz2     :     0.011742  d :     0.032950
      dxz     :     0.010255
      dyz     :     0.010104
      dx2y2   :     0.000412
      dxy     :     0.000437
      f0      :     0.000622  f :     0.001914
      f+1     :     0.000587
      f-1     :     0.000572
      f+2     :     0.000064
      f-2     :     0.000062
      f+3     :     0.000004
      f-3     :     0.000003
[...]
     53      -0.036195   0.000007  -0.000141  -0.032964   0.005112   0.002469
     54      -0.522439   0.000194   0.002666   0.601612  -0.007411  -0.000429
     55       0.056663  -0.000018  -0.000364  -0.078877  -0.000596  -0.000671
     56      -0.387669   0.000150   0.001839   0.447245  -0.004319   0.000210
     57      -0.000002   0.000121  -0.000002   0.000001   0.000007  -0.000008
     58       0.000003   0.000071   0.000002   0.000000  -0.000005   0.000014
     59      -0.000001   0.000002   0.000001  -0.000000   0.000006  -0.000007
     60      -0.000037   0.000931  -0.000047  -0.000000  -0.000283   0.000194
     61       0.000040   0.000655   0.000010  -0.000009   0.000330  -0.000306
     62      -0.000050   0.000159  -0.000036   0.000005  -0.000301   0.000221
     63       0.002726  -0.000002   0.000058   0.000779   0.058060  -0.004546
     64       0.000407  -0.000005  -0.000005   0.001561   0.017739   0.076654
     65       0.001303  -0.000004   0.000052  -0.000420  -0.011809   0.022209
     66      -0.005109  -0.000032  -0.000045  -0.012404  -0.620228  -0.308316
     67      -0.004521   0.000025   0.000041  -0.014577  -0.643368  -0.301751
     68      -0.001945   0.000006   0.000045  -0.007345   0.025541   0.015373
     69       0.001504   0.000010  -0.000007  -0.000626  -0.159683   0.339473
     70      -0.008747  -0.000014  -0.000130   0.001799   0.376676  -0.759852
     71       0.001875   0.000016  -0.000035   0.001972   0.166115  -0.336771
     72      -0.033008   0.000100  -0.000990   0.008712  -0.023052   0.025233
     73       0.012500   0.000061   0.000433  -0.005127   0.014602   0.002156
     74      -0.028149   0.000087  -0.000701   0.015601  -0.028743   0.020899
                 72         73         74    
      0       0.044550   0.000816  -0.000130
      1      -0.049366  -0.000884   0.000199
      2      -0.031745  -0.000473  -0.000276
      3      -0.601585  -0.010403  -0.000364
      4       0.666309   0.011413   0.000333
      5       0.433832   0.007420   0.000605
      6       0.000020   0.000018  -0.000330
      7      -0.000177  -0.000016   0.000378
      8       0.000584  -0.000021   0.000072
      9      -0.000407  -0.000030   0.001707
     10       0.000505   0.000035  -0.001953
     11      -0.000104  -0.000026  -0.000314
     12      -0.004214  -0.000154   0.000734
     13      -0.001820  -0.000007   0.000020
     14       0.003980   0.000092  -0.000532
     15       0.001753  -0.000008  -0.000034
     16       0.003542   0.000066  -0.000664
     17       0.005110   0.000166  -0.000656
     18       0.000085   0.000009  -0.000253
     19      -0.000075  -0.000011   0.000138
     20      -0.000144   0.000016   0.000925
     21      -0.000093  -0.000109   0.000122
     22       0.000251   0.000120  -0.000167
     23      -0.000969   0.000094   0.000115
     24       0.000118   0.000958   0.000016
     25      -0.000211  -0.000109  -0.000027
     26       0.000063   0.001096   0.000001
     27      -0.001117   0.000061  -0.000073
     28       0.001314  -0.000094   0.000084
     29       0.000176   0.000054  -0.000005
     30      -0.000582   0.032573  -0.000012
     31      -0.001151   0.065510   0.000043
     32      -0.000078   0.002017  -0.000021
     33      -0.000981  -0.006082  -0.000165
     34       0.000911   0.000123   0.000010
     35       0.000239  -0.000817   0.000022
     36      -0.000357  -0.001831   0.000058
     37       0.001527  -0.010148   0.000196
     38       0.000409  -0.001177   0.000056
     39       0.007242  -0.428588  -0.000258
     40       0.015496  -0.898913  -0.000448
     41       0.001194  -0.048960   0.000064
     42       0.000126  -0.001223   0.000047
     43      -0.000018   0.001318   0.000005
     44       0.000049   0.000771   0.000010
     45      -0.000014   0.000310  -0.000002
     46      -0.000006   0.000248  -0.000001
     47       0.000030  -0.000219   0.000006
     48      -0.000029  -0.000726  -0.000017
     49      -0.000004  -0.000781  -0.000005
     50      -0.000035   0.000055  -0.000007
     51       0.000110  -0.005181   0.000007
     52      -0.000034  -0.004690  -0.000027
     53       0.000036   0.000651   0.000016
     54       0.000018  -0.001270  -0.000011
     55      -0.000002   0.000105   0.000004
     56       0.000080   0.000109   0.000019
     57       0.000298  -0.000003   0.032268
     58      -0.000368   0.000010  -0.043138
     59       0.000079  -0.000012   0.029826
     60       0.000696   0.000254  -0.523626
     61      -0.000892  -0.000392   0.699701
     62       0.000075   0.000272  -0.482109
     63      -0.000634   0.000042  -0.000088
     64       0.000348   0.000292   0.000049
     65      -0.000164   0.000033  -0.000030
     66       0.001631  -0.001464   0.000216
     67       0.001447  -0.001870   0.000118
     68      -0.000052  -0.000143   0.000010
     69       0.001622   0.000923   0.000196
     70      -0.003696  -0.002464  -0.000432
     71      -0.001748  -0.001170  -0.000187
     72       0.006987   0.000628   0.001117
     73      -0.003495  -0.000432  -0.000576
     74       0.004260  -0.000336   0.000659


-----------
IR SPECTRUM
-----------

 Mode   freq       eps      Int      T**2         TX        TY        TZ
       cm**-1   L/(mol*cm) km/mol    a.u.
----------------------------------------------------------------------------
  6:     17.36   0.000053    0.27  0.000949  ( 0.003736 -0.016816  0.025549)
  7:     38.35   0.001255    6.34  0.010212  (-0.084551 -0.055344 -0.000348)
  8:     52.12   0.000479    2.42  0.002871  ( 0.028491 -0.000624  0.045374)
  9:     67.73   0.001173    5.93  0.005406  (-0.034249 -0.058394  0.028683)
 10:     94.48   0.002775   14.02  0.009166  (-0.065727  0.019423 -0.066848)
 11:    124.99   0.003644   18.42  0.009098  (-0.023343 -0.076400  0.052122)
 12:    164.93   0.003345   16.90  0.006328  ( 0.031564 -0.052618  0.050630)
 13:    170.02   0.005440   27.49  0.009984  ( 0.080891 -0.007109  0.058229)
 14:    263.57   0.004954   25.03  0.005865  (-0.074228  0.017034  0.008062)
 15:    269.80   0.009922   50.14  0.011476  (-0.054276  0.059616  0.070544)
 16:    295.84   0.002721   13.75  0.002870  ( 0.013059  0.012834 -0.050346)
 17:    314.83   0.000447    2.26  0.000443  (-0.015936  0.009738 -0.009699)
 18:    346.90   0.000305    1.54  0.000275  (-0.005367  0.012256  0.009785)
 19:    405.29   0.009963   50.35  0.007671  ( 0.064654 -0.047864  0.034641)
 20:    438.33   0.003830   19.36  0.002727  ( 0.029813 -0.033778  0.026402)
 21:    510.37   0.012675   64.05  0.007750  (-0.069130 -0.053132 -0.012168)
 22:    549.27   0.000965    4.88  0.000549  ( 0.013732 -0.016498  0.009370)
 23:    552.37   0.000679    3.43  0.000383  (-0.008584 -0.016903 -0.004894)
 24:    587.23   0.010109   51.09  0.005372  ( 0.058454  0.002562 -0.044144)
 25:    602.21   0.012670   64.03  0.006565  (-0.023218  0.069071 -0.035433)
 26:    619.46   0.003443   17.40  0.001735  ( 0.022384  0.018113  0.030093)
 27:    671.12   0.022497  113.69  0.010461  (-0.079870 -0.063883  0.000873)
 28:    684.32   0.013276   67.09  0.006054  (-0.038975  0.001479  0.067328)
 29:    731.39   0.003972   20.07  0.001695  (-0.034614  0.019560  0.010674)
 30:    785.54   0.002502   12.64  0.000994  (-0.003935  0.001872  0.031222)
 31:    869.33   0.001493    7.54  0.000536  (-0.009765  0.004339  0.020532)
 32:    879.11   0.001342    6.78  0.000477  (-0.006392  0.020839  0.001190)
 33:    912.13   0.002647   13.37  0.000905  ( 0.013282 -0.000536  0.026995)
 34:    979.53   0.002440   12.33  0.000777  ( 0.004817  0.003280 -0.027264)
 35:    986.83   0.004012   20.28  0.001269  ( 0.023487 -0.010755  0.024526)
 36:   1015.49   0.000545    2.75  0.000167  ( 0.009967  0.008211 -0.000852)
 37:   1057.05   0.000931    4.71  0.000275  (-0.016283  0.002564  0.001796)
 38:   1076.92   0.002430   12.28  0.000704  (-0.024460 -0.008892 -0.005182)
 39:   1128.67   0.002412   12.19  0.000667  ( 0.015998  0.002231 -0.020145)
 40:   1139.87   0.014460   73.07  0.003959  ( 0.039000 -0.048678  0.008253)
 41:   1157.85   0.003237   16.36  0.000873  (-0.012151 -0.001002 -0.026905)
 42:   1200.09   0.051207  258.78  0.013315  ( 0.075129 -0.077402 -0.040986)
 43:   1269.26   0.000479    2.42  0.000118  (-0.008424 -0.006691 -0.001441)
 44:   1275.78   0.006224   31.45  0.001522  ( 0.022473 -0.024791  0.020067)
 45:   1284.75   0.001511    7.64  0.000367  (-0.009956  0.004286 -0.015797)
 46:   1303.01   0.006582   33.26  0.001576  (-0.033832  0.020373  0.004089)
 47:   1334.35   0.004179   21.12  0.000977  (-0.022894  0.002077 -0.021187)
 48:   1361.28   0.002239   11.31  0.000513  (-0.016402  0.014016  0.006908)
 49:   1390.95   0.023850  120.53  0.005351  ( 0.047569 -0.055224 -0.006191)
 50:   1410.16   0.000512    2.59  0.000113  (-0.008105  0.006677  0.001751)
 51:   1422.13   0.000517    2.61  0.000113  (-0.006680  0.004301  0.007090)
 52:   1475.52   0.003456   17.46  0.000731  ( 0.000152  0.017497  0.020608)
 53:   1494.56   0.002407   12.16  0.000503  (-0.015990  0.015258 -0.003758)
 54:   1504.45   0.002566   12.97  0.000532  (-0.001943  0.019126 -0.012757)
 55:   1538.50   0.027895  140.97  0.005658  (-0.055056  0.026870  0.043647)
 56:   1570.47   0.040413  204.23  0.008030  ( 0.087401 -0.018342  0.007406)
 57:   1602.61   0.057451  290.33  0.011187  (-0.023957  0.040016 -0.094930)
 58:   1624.38   0.025835  130.56  0.004963  (-0.013436  0.065759 -0.021414)
 59:   1682.19   0.035996  181.91  0.006678  ( 0.058086 -0.055989  0.013002)
 60:   1726.87   0.064542  326.17  0.011663  ( 0.062510 -0.083620  0.027637)
 61:   1819.14   0.045271  228.78  0.007766  (-0.073104 -0.046367 -0.016490)
 62:   1891.22   0.070808  357.83  0.011684  (-0.005219 -0.011684  0.107331)
 63:   3025.40   0.172057  869.50  0.017747  ( 0.100135 -0.066977  0.056872)
 64:   3102.87   0.001294    6.54  0.000130  ( 0.002175 -0.004973  0.010033)
 65:   3119.14   0.002233   11.28  0.000223  ( 0.010843 -0.004483  0.009260)
 66:   3132.70   0.000828    4.18  0.000082  (-0.008921  0.000205 -0.001692)
 67:   3143.97   0.000046    0.23  0.000005  ( 0.002019  0.000658  0.000308)
 68:   3172.86   0.000159    0.80  0.000016  (-0.002169 -0.002591 -0.002061)
 69:   3203.11   0.000158    0.80  0.000015  ( 0.001312 -0.002622  0.002609)
 70:   3475.60   0.016960   85.71  0.001523  (-0.038461 -0.003607  0.005523)
 71:   3556.13   0.021504  108.67  0.001887  ( 0.007241 -0.041468 -0.010727)
 72:   3649.55   0.023261  117.55  0.001989  (-0.028269  0.034440 -0.001922)
 73:   3660.37   0.008936   45.16  0.000762  (-0.018379 -0.020414  0.002715)
 74:   3799.29   0.028560  144.33  0.002346  (-0.029706  0.036520 -0.011390)

* The epsilon (eps) is given for a Dirac delta lineshape.
** The dipole moment derivative (T) already includes vibrational overlap.

The first frequency considered to be a vibration is 6
The total number of vibrations considered is 69


--------------------------
THERMOCHEMISTRY AT 298.15K
--------------------------

Temperature         ... 298.15 K
Pressure            ... 1.00 atm
Total Mass          ... 190.18 AMU

Throughout the following assumptions are being made:
  (1) The electronic state is orbitally nondegenerate
  (2) There are no thermally accessible electronically excited states
  (3) Hindered rotations indicated by low frequency modes are not
      treated as such but are treated as vibrations and this may
      cause some error
  (4) All equations used are the standard statistical mechanics
      equations for an ideal gas
  (5) All vibrations are strictly harmonic

freq.      17.36  E(vib)   ...       0.57 
freq.      38.35  E(vib)   ...       0.54 
freq.      52.12  E(vib)   ...       0.52 
freq.      67.73  E(vib)   ...       0.50 
freq.      94.48  E(vib)   ...       0.47 
freq.     124.99  E(vib)   ...       0.43 
freq.     164.93  E(vib)   ...       0.39 
freq.     170.02  E(vib)   ...       0.38 
freq.     263.57  E(vib)   ...       0.29 
freq.     269.80  E(vib)   ...       0.29 
freq.     295.84  E(vib)   ...       0.27 
freq.     314.83  E(vib)   ...       0.25 
freq.     346.90  E(vib)   ...       0.23 
freq.     405.29  E(vib)   ...       0.19 
freq.     438.33  E(vib)   ...       0.17 
freq.     510.37  E(vib)   ...       0.14 
freq.     549.27  E(vib)   ...       0.12 
freq.     552.37  E(vib)   ...       0.12 
freq.     587.23  E(vib)   ...       0.10 
freq.     602.21  E(vib)   ...       0.10 
freq.     619.46  E(vib)   ...       0.09 
freq.     671.12  E(vib)   ...       0.08 
freq.     684.32  E(vib)   ...       0.07 
freq.     731.39  E(vib)   ...       0.06 
freq.     785.54  E(vib)   ...       0.05 
freq.     869.33  E(vib)   ...       0.04 
freq.     879.11  E(vib)   ...       0.04 
freq.     912.13  E(vib)   ...       0.03 
freq.     979.53  E(vib)   ...       0.03 
freq.     986.83  E(vib)   ...       0.02 
freq.    1015.49  E(vib)   ...       0.02 
freq.    1057.05  E(vib)   ...       0.02 
freq.    1076.92  E(vib)   ...       0.02 
freq.    1128.67  E(vib)   ...       0.01 
freq.    1139.87  E(vib)   ...       0.01 
freq.    1157.85  E(vib)   ...       0.01 
freq.    1200.09  E(vib)   ...       0.01 
freq.    1269.26  E(vib)   ...       0.01 
freq.    1275.78  E(vib)   ...       0.01 
freq.    1284.75  E(vib)   ...       0.01 
freq.    1303.01  E(vib)   ...       0.01 
freq.    1334.35  E(vib)   ...       0.01 
freq.    1361.28  E(vib)   ...       0.01 
freq.    1390.95  E(vib)   ...       0.00 
freq.    1410.16  E(vib)   ...       0.00 
freq.    1422.13  E(vib)   ...       0.00 
freq.    1475.52  E(vib)   ...       0.00 
freq.    1494.56  E(vib)   ...       0.00 
freq.    1504.45  E(vib)   ...       0.00 
freq.    1538.50  E(vib)   ...       0.00 
freq.    1570.47  E(vib)   ...       0.00 
freq.    1602.61  E(vib)   ...       0.00 
freq.    1624.38  E(vib)   ...       0.00 
freq.    1682.19  E(vib)   ...       0.00 
freq.    1726.87  E(vib)   ...       0.00 
freq.    1819.14  E(vib)   ...       0.00 
freq.    1891.22  E(vib)   ...       0.00 
freq.    3025.40  E(vib)   ...       0.00 
freq.    3102.87  E(vib)   ...       0.00 
freq.    3119.14  E(vib)   ...       0.00 
freq.    3132.70  E(vib)   ...       0.00 
freq.    3143.97  E(vib)   ...       0.00 
freq.    3172.86  E(vib)   ...       0.00 
freq.    3203.11  E(vib)   ...       0.00 
freq.    3475.60  E(vib)   ...       0.00 
freq.    3556.13  E(vib)   ...       0.00 
freq.    3649.55  E(vib)   ...       0.00 
freq.    3660.37  E(vib)   ...       0.00 
freq.    3799.29  E(vib)   ...       0.00 

------------
INNER ENERGY
------------

The inner energy is: U= E(el) + E(ZPE) + E(vib) + E(rot) + E(trans)
    E(el)   - is the total energy from the electronic structure calculation
              = E(kin-el) + E(nuc-el) + E(el-el) + E(nuc-nuc)
    E(ZPE)  - the the zero temperature vibrational energy from the frequency calculation
    E(vib)  - the the finite temperature correction to E(ZPE) due to population
              of excited vibrational states
    E(rot)  - is the rotational thermal energy
    E(trans)- is the translational thermal energy

Summary of contributions to the inner energy U:
Electronic energy                ...   -701.34357577 Eh
Zero point energy                ...      0.20909767 Eh     131.21 kcal/mol
Thermal vibrational correction   ...      0.01079339 Eh       6.77 kcal/mol
Thermal rotational correction    ...      0.00141627 Eh       0.89 kcal/mol
Thermal translational correction ...      0.00141627 Eh       0.89 kcal/mol
-----------------------------------------------------------------------
Total thermal energy                   -701.12085217 Eh


Summary of corrections to the electronic energy:
(perhaps to be used in another calculation)
Total thermal correction                  0.01362593 Eh       8.55 kcal/mol
Non-thermal (ZPE) correction              0.20909767 Eh     131.21 kcal/mol
-----------------------------------------------------------------------
Total correction                          0.22272360 Eh     139.76 kcal/mol


--------
ENTHALPY
--------

The enthalpy is H = U + kB*T
                kB is Boltzmann's constant
Total free energy                 ...   -701.12085217 Eh 
Thermal Enthalpy correction       ...      0.00094421 Eh       0.59 kcal/mol
-----------------------------------------------------------------------
Total Enthalpy                    ...   -701.11990796 Eh


Note: Only C1 symmetry has been detected, increase convergence thresholds 
      if your molecule has a higher symmetry. Symmetry factor of 1.0 is   
      used for the rotational entropy correction. 
 

Note: Rotational entropy computed according to Herzberg 
Infrared and Raman Spectra, Chapter V,1, Van Nostrand Reinhold, 1945 
Point Group:  C1, Symmetry Number:   1  
Rotational constants in cm-1:     0.064703     0.010842     0.009943 

Vibrational entropy computed according to the QRRHO of S. Grimme
Chem.Eur.J. 2012 18 9955


-------
ENTROPY
-------

The entropy contributions are T*S = T*(S(el)+S(vib)+S(rot)+S(trans))
     S(el)   - electronic entropy
     S(vib)  - vibrational entropy
     S(rot)  - rotational entropy
     S(trans)- translational entropy
The entropies will be listed as multiplied by the temperature to get
units of energy

Electronic entropy                ...      0.00000000 Eh      0.00 kcal/mol
Vibrational entropy               ...      0.01949389 Eh     12.23 kcal/mol
Rotational entropy                ...      0.01511601 Eh      9.49 kcal/mol
Translational entropy             ...      0.01978162 Eh     12.41 kcal/mol
-----------------------------------------------------------------------
Final entropy term                ...      0.05439152 Eh     34.13 kcal/mol

In case the symmetry of your molecule has not been determined correctly
or in case you have a reason to use a different symmetry number we print 
out the resulting rotational entropy values for sn=1,12 :
 --------------------------------------------------------
|  sn= 1 | S(rot)=       0.01511601 Eh      9.49 kcal/mol|
|  sn= 2 | S(rot)=       0.01446155 Eh      9.07 kcal/mol|
|  sn= 3 | S(rot)=       0.01407872 Eh      8.83 kcal/mol|
|  sn= 4 | S(rot)=       0.01380710 Eh      8.66 kcal/mol|
|  sn= 5 | S(rot)=       0.01359641 Eh      8.53 kcal/mol|
|  sn= 6 | S(rot)=       0.01342426 Eh      8.42 kcal/mol|
|  sn= 7 | S(rot)=       0.01327872 Eh      8.33 kcal/mol|
|  sn= 8 | S(rot)=       0.01315264 Eh      8.25 kcal/mol|
|  sn= 9 | S(rot)=       0.01304143 Eh      8.18 kcal/mol|
|  sn=10 | S(rot)=       0.01294195 Eh      8.12 kcal/mol|
|  sn=11 | S(rot)=       0.01285196 Eh      8.06 kcal/mol|
|  sn=12 | S(rot)=       0.01276981 Eh      8.01 kcal/mol|
 --------------------------------------------------------


-------------------
GIBBS FREE ENERGY
-------------------

The Gibbs free energy is G = H - T*S

Total enthalpy                    ...   -701.11990796 Eh 
Total entropy correction          ...     -0.05439152 Eh    -34.13 kcal/mol
-----------------------------------------------------------------------
Final Gibbs free energy         ...   -701.17429948 Eh

For completeness - the Gibbs free energy minus the electronic energy
G-E(el)                           ...      0.16927630 Eh    106.22 kcal/mol


Timings for individual modules:

Sum of individual times         ...     8222.278 sec (= 137.038 min)
GTO integral calculation        ...       33.230 sec (=   0.554 min)   0.4 %
SCF iterations                  ...     2809.720 sec (=  46.829 min)  34.2 %
SCF Gradient evaluation         ...      589.834 sec (=   9.831 min)   7.2 %
Geometry relaxation             ...        1.428 sec (=   0.024 min)   0.0 %
Analytical frequency calculation...     4297.311 sec (=  71.622 min)  52.3 %
CHELPG charge generation        ...      490.756 sec (=   8.179 min)   6.0 %
                             ****ORCA TERMINATED NORMALLY****
TOTAL RUN TIME: 0 days 2 hours 17 minutes 40 seconds 566 msec
