
Lmod is automatically replacing "intel/2020.1.217" with "gcc/10.3.0".


Due to MODULEPATH changes, the following have been reloaded:
  1) blis/0.8.1     2) flexiblas/3.0.4

The following have been reloaded with a version change:
  1) gcccore/.9.3.0 => gcccore/.10.3.0        3) openmpi/4.0.3 => openmpi/4.1.1
  2) libfabric/1.10.1 => libfabric/1.12.1     4) ucx/1.8.0 => ucx/1.9.0

To execute ORCA, run: 
   ${EBROOTORCA}/orca orca.inp > orca.out

                                 *****************
                                 * O   R   C   A *
                                 *****************

                                            #,                                       
                                            ###                                      
                                            ####                                     
                                            #####                                    
                                            ######                                   
                                           ########,                                 
                                     ,,################,,,,,                         
                               ,,#################################,,                 
                          ,,##########################################,,             
                       ,#########################################, ''#####,          
                    ,#############################################,,   '####,        
                  ,##################################################,,,,####,       
                ,###########''''           ''''###############################       
              ,#####''   ,,,,##########,,,,          '''####'''          '####       
            ,##' ,,,,###########################,,,                        '##       
           ' ,,###''''                  '''############,,,                           
         ,,##''                                '''############,,,,        ,,,,,,###''
      ,#''                                            '''#######################'''  
     '                                                          ''''####''''         
             ,#######,   #######,   ,#######,      ##                                
            ,#'     '#,  ##    ##  ,#'     '#,    #''#        ######   ,####,        
            ##       ##  ##   ,#'  ##            #'  '#       #        #'  '#        
            ##       ##  #######   ##           ,######,      #####,   #    #        
            '#,     ,#'  ##    ##  '#,     ,#' ,#      #,         ##   #,  ,#        
             '#######'   ##     ##  '#######'  #'      '#     #####' # '####'        



                  #######################################################
                  #                        -***-                        #
                  #          Department of theory and spectroscopy      #
                  #    Directorship and core code : Frank Neese         #
                  #        Max Planck Institute fuer Kohlenforschung    #
                  #                Kaiser Wilhelm Platz 1               #
                  #                 D-45470 Muelheim/Ruhr               #
                  #                      Germany                        #
                  #                                                     #
                  #                  All rights reserved                #
                  #                        -***-                        #
                  #######################################################


                         Program Version 5.0.2 -  RELEASE  -


 With contributions from (in alphabetic order):
   Daniel Aravena         : Magnetic Suceptibility
   Michael Atanasov       : Ab Initio Ligand Field Theory (pilot matlab implementation)
   Alexander A. Auer      : GIAO ZORA, VPT2 properties, NMR spectrum
   Ute Becker             : Parallelization
   Giovanni Bistoni       : ED, misc. LED, open-shell LED, HFLD
   Martin Brehm           : Molecular dynamics
   Dmytro Bykov           : SCF Hessian
   Vijay G. Chilkuri      : MRCI spin determinant printing, contributions to CSF-ICE
   Dipayan Datta          : RHF DLPNO-CCSD density
   Achintya Kumar Dutta   : EOM-CC, STEOM-CC
   Dmitry Ganyushin       : Spin-Orbit,Spin-Spin,Magnetic field MRCI
   Miquel Garcia          : C-PCM and meta-GGA Hessian, CC/C-PCM, Gaussian charge scheme
   Yang Guo               : DLPNO-NEVPT2, F12-NEVPT2, CIM, IAO-localization
   Andreas Hansen         : Spin unrestricted coupled pair/coupled cluster methods
   Benjamin Helmich-Paris : MC-RPA, TRAH-SCF, COSX integrals
   Lee Huntington         : MR-EOM, pCC
   Robert Izsak           : Overlap fitted RIJCOSX, COSX-SCS-MP3, EOM
   Marcus Kettner         : VPT2
   Christian Kollmar      : KDIIS, OOCD, Brueckner-CCSD(T), CCSD density, CASPT2, CASPT2-K
   Simone Kossmann        : Meta GGA functionals, TD-DFT gradient, OOMP2, MP2 Hessian
   Martin Krupicka        : Initial AUTO-CI
   Lucas Lang             : DCDCAS
   Marvin Lechner         : AUTO-CI (C++ implementation), FIC-MRCC
   Dagmar Lenk            : GEPOL surface, SMD
   Dimitrios Liakos       : Extrapolation schemes; Compound Job, initial MDCI parallelization
   Dimitrios Manganas     : Further ROCIS development; embedding schemes
   Dimitrios Pantazis     : SARC Basis sets
   Anastasios Papadopoulos: AUTO-CI, single reference methods and gradients
   Taras Petrenko         : DFT Hessian,TD-DFT gradient, ASA, ECA, R-Raman, ABS, FL, XAS/XES, NRVS
   Peter Pinski           : DLPNO-MP2, DLPNO-MP2 Gradient
   Christoph Reimann      : Effective Core Potentials
   Marius Retegan         : Local ZFS, SOC
   Christoph Riplinger    : Optimizer, TS searches, QM/MM, DLPNO-CCSD(T), (RO)-DLPNO pert. Triples
   Tobias Risthaus        : Range-separated hybrids, TD-DFT gradient, RPA, STAB
   Michael Roemelt        : Original ROCIS implementation
   Masaaki Saitow         : Open-shell DLPNO-CCSD energy and density
   Barbara Sandhoefer     : DKH picture change effects
   Avijit Sen             : IP-ROCIS
   Kantharuban Sivalingam : CASSCF convergence, NEVPT2, FIC-MRCI
   Bernardo de Souza      : ESD, SOC TD-DFT
   Georgi Stoychev        : AutoAux, RI-MP2 NMR, DLPNO-MP2 response
   Willem Van den Heuvel  : Paramagnetic NMR
   Boris Wezisla          : Elementary symmetry handling
   Frank Wennmohs         : Technical directorship


 We gratefully acknowledge several colleagues who have allowed us to
 interface, adapt or use parts of their codes:
   Stefan Grimme, W. Hujo, H. Kruse, P. Pracht,  : VdW corrections, initial TS optimization,
                  C. Bannwarth, S. Ehlert          DFT functionals, gCP, sTDA/sTD-DF
   Ed Valeev, F. Pavosevic, A. Kumar             : LibInt (2-el integral package), F12 methods
   Garnet Chan, S. Sharma, J. Yang, R. Olivares  : DMRG
   Ulf Ekstrom                                   : XCFun DFT Library
   Mihaly Kallay                                 : mrcc  (arbitrary order and MRCC methods)
   Jiri Pittner, Ondrej Demel                    : Mk-CCSD
   Frank Weinhold                                : gennbo (NPA and NBO analysis)
   Christopher J. Cramer and Donald G. Truhlar   : smd solvation model
   Lars Goerigk                                  : TD-DFT with DH, B97 family of functionals
   V. Asgeirsson, H. Jonsson                     : NEB implementation
   FAccTs GmbH                                   : IRC, NEB, NEB-TS, DLPNO-Multilevel, CI-OPT
                                                   MM, QMMM, 2- and 3-layer-ONIOM, Crystal-QMMM,
                                                   LR-CPCM, SF, NACMEs, symmetry and pop. for TD-DFT,
                                                   nearIR, NL-DFT gradient (VV10), updates on ESD,
                                                   ML-optimized integration grids
   S Lehtola, MJT Oliveira, MAL Marques          : LibXC Library
   Liviu Ungur et al                             : ANISO software


 Your calculation uses the libint2 library for the computation of 2-el integrals
 For citations please refer to: http://libint.valeyev.net

 Your ORCA version has been built with support for libXC version: 5.1.0
 For citations please refer to: https://tddft.org/programs/libxc/

 This ORCA versions uses:
   CBLAS   interface :  Fast vector & matrix operations
   LAPACKE interface :  Fast linear algebra routines
   SCALAPACK package :  Parallel linear algebra routines
   Shared memory     :  Shared parallel matrices
   BLAS/LAPACK       :  OpenBLAS 0.3.15  USE64BITINT DYNAMIC_ARCH NO_AFFINITY Zen SINGLE_THREADED
        Core in use  :  Zen
   Copyright (c) 2011-2014, The OpenBLAS Project


Your calculation utilizes the atom-pairwise dispersion correction
with the Becke-Johnson damping scheme (D3BJ)
Cite in your paper:
S.Grimme, S.Ehrlich, L.Goerigk, J Comput Chem, (2011), 32, 1456–1465 
S.Grimme, J.Antony, S.Ehrlich and H.Krieg, J.Chem.Phys., 132, (2010), 154104 
   

================================================================================

----- Orbital basis set information -----
Your calculation utilizes the basis: def2-TZVPP
   F. Weigend and R. Ahlrichs, Phys. Chem. Chem. Phys. 7, 3297 (2005).

----- AuxJ basis set information -----
Your calculation utilizes the auxiliary basis: def2/J
   F. Weigend, Phys. Chem. Chem. Phys. 8, 1057 (2006).

================================================================================
                                        WARNINGS
                       Please study these warnings very carefully!
================================================================================


WARNING: Geometry Optimization
  ===> : Switching off AutoStart
         For restart on a previous wavefunction, please use MOREAD

INFO   : the flag for use of the SHARK integral package has been found!

================================================================================
                                       INPUT FILE
================================================================================
NAME = GGG-H_tt_004_OptFreq.inp
|  1> # GGG-H_tt_004 (old 023)
|  2> ! wB97X-D3BJ Opt Freq def2-TZVPP def2/J RIJCOSX VeryTightSCF
|  3> ! PAL8 defgrid3 VeryTightOpt
|  4> 
|  5> %maxcore 4096
|  6> 
|  7> %geom
|  8>   MaxIter 300
|  9>   # MaxStep 0.1
| 10>   Calc_Hess true
| 11>   Recalc_Hess 10
| 12> end
| 13> 
| 14> %chelpg
| 15>   grid 0.1
| 16>   rmax 3.0
| 17> end
| 18> 
| 19> * xyz 1 1 
| 20>  N   -1.208707   +1.779137   +2.953685
| 21>  H   -1.968972   +2.295970   +2.512598
| 22>  C   -1.262731   +1.596066   +4.393431
| 23>  C   -2.102851   +0.358753   +4.739425
| 24>  H   -0.242345   +1.450111   +4.783195
| 25>  H   -1.685278   +2.492700   +4.872826
| 26>  O   -2.553897   -0.408578   +3.916424
| 27>  C   -0.443591   +0.989643   +2.178935
| 28>  C   -0.646481   +1.124413   +0.649441
| 29>  O   +0.404991   +0.215008   +2.665826
| 30>  N   +0.000000   +0.000000   +0.000000
| 31>  H   -0.171045   +2.056306   +0.301004
| 32>  H   -1.717207   +1.154188   +0.393229
| 33>  H   -0.468199   -0.900222   +0.104506
| 34>  C   +1.368463   +0.000000   +0.000000
| 35>  C   +2.042118   -1.351074   +0.290431
| 36>  O   +2.063532   +1.008005   +0.000000
| 37>  H   +2.908260   -1.534617   -0.361403
| 38>  H   +1.368154   -2.220515   +0.294738
| 39>  O   -2.249019   +0.247050   +6.069683
| 40>  H   -2.788377   -0.553936   +6.246565
| 41>  N   +2.519751   -1.116369   +1.707328
| 42>  H   +2.890488   -1.957404   +2.172628
| 43>  H   +3.250559   -0.384287   +1.687303
| 44>  H   +1.686592   -0.682190   +2.242500
| 45> *
| 46> 
| 47>                          ****END OF INPUT****
================================================================================

                       *****************************
                       * Geometry Optimization Run *
                       *****************************

Geometry optimization settings:
Update method            Update   .... BFGS
Choice of coordinates    CoordSys .... Z-matrix Internals
Initial Hessian          InHess   .... Almoef's Model

Convergence Tolerances:
Energy Change            TolE     ....  2.0000e-07 Eh
Max. Gradient            TolMAXG  ....  3.0000e-05 Eh/bohr
RMS Gradient             TolRMSG  ....  8.0000e-06 Eh/bohr
Max. Displacement        TolMAXD  ....  2.0000e-04 bohr
RMS Displacement         TolRMSD  ....  1.0000e-04 bohr
Strict Convergence                ....  False
------------------------------------------------------------------------------
                        ORCA OPTIMIZATION COORDINATE SETUP
------------------------------------------------------------------------------

The optimization will be done in new redundant internal coordinates
Making redundant internal coordinates   ...  (new redundants) done
Evaluating the initial hessian          ...  (Is done on the fly) done
Evaluating the coordinates              ...  done
Calculating the B-matrix                .... done
Calculating the G-matrix                .... done
Diagonalizing the G-matrix              .... done
Small eigenvalue found = 4.201e-03
Small eigenvalue found = 1.480e-02
Small eigenvalue found = 1.556e-02
The first mode is                       ....   44
The number of degrees of freedom        ....   69

    -----------------------------------------------------------------
                    Redundant Internal Coordinates


    -----------------------------------------------------------------
         Definition                    Initial Value    d2E/dq (diagonal element)
    -----------------------------------------------------------------
      1. B(H   1,N   0)                  1.0196         0.000000   
      2. B(C   2,N   0)                  1.4523         0.000000   
      3. B(C   3,C   2)                  1.5351         0.000000   
      4. B(H   4,C   2)                  1.1020         0.000000   
      5. B(H   5,C   2)                  1.1011         0.000000   
      6. B(O   6,C   3)                  1.2123         0.000000   
      7. B(C   7,N   0)                  1.3450         0.000000   
      8. B(C   8,C   7)                  1.5488         0.000000   
      9. B(O   9,C   7)                  1.2479         0.000000   
     10. B(N  10,C   8)                  1.4505         0.000000   
     11. B(H  11,C   8)                  1.1027         0.000000   
     12. B(H  12,C   8)                  1.1014         0.000000   
     13. B(H  13,N  10)                  1.0201         0.000000   
     14. B(C  14,N  10)                  1.3685         0.000000   
     15. B(C  15,C  14)                  1.5374         0.000000   
     16. B(O  16,C  14)                  1.2244         0.000000   
     17. B(H  17,C  15)                  1.0994         0.000000   
     18. B(H  18,C  15)                  1.1001         0.000000   
     19. B(O  19,C   3)                  1.3429         0.000000   
     20. B(H  20,O  19)                  0.9817         0.000000   
     21. B(N  21,C  15)                  1.5135         0.000000   
     22. B(H  22,N  21)                  1.0302         0.000000   
     23. B(H  23,N  21)                  1.0346         0.000000   
     24. B(H  24,N  21)                  1.0812         0.000000   
     25. A(H   1,N   0,C   2)          117.7098         0.000000   
     26. A(C   2,N   0,C   7)          121.2121         0.000000   
     27. A(H   1,N   0,C   7)          118.1973         0.000000   
     28. A(C   3,C   2,H   5)          110.3784         0.000000   
     29. A(C   3,C   2,H   4)          108.6797         0.000000   
     30. A(N   0,C   2,H   4)          109.4432         0.000000   
     31. A(N   0,C   2,C   3)          110.2060         0.000000   
     32. A(N   0,C   2,H   5)          110.0748         0.000000   
     33. A(H   4,C   2,H   5)          108.0114         0.000000   
     34. A(O   6,C   3,O  19)          125.4049         0.000000   
     35. A(C   2,C   3,O  19)          110.4800         0.000000   
     36. A(C   2,C   3,O   6)          124.1115         0.000000   
     37. A(C   8,C   7,O   9)          121.8986         0.000000   
     38. A(N   0,C   7,O   9)          121.7675         0.000000   
     39. A(N   0,C   7,C   8)          116.3124         0.000000   
     40. A(C   7,C   8,H  11)          109.2154         0.000000   
     41. A(C   7,C   8,N  10)          108.4404         0.000000   
     42. A(H  11,C   8,H  12)          108.8335         0.000000   
     43. A(N  10,C   8,H  12)          110.4930         0.000000   
     44. A(C   7,C   8,H  12)          111.0663         0.000000   
     45. A(N  10,C   8,H  11)          108.7522         0.000000   
     46. A(H  13,N  10,C  14)          117.3219         0.000000   
     47. A(C   8,N  10,C  14)          116.4674         0.000000   
     48. A(C   8,N  10,H  13)          115.7007         0.000000   
     49. A(C  15,C  14,O  16)          118.3424         0.000000   
     50. A(N  10,C  14,O  16)          124.5882         0.000000   
     51. A(N  10,C  14,C  15)          115.9879         0.000000   
     52. A(H  17,C  15,H  18)          110.6725         0.000000   
     53. A(C  14,C  15,H  18)          115.2679         0.000000   
     54. A(C  14,C  15,H  17)          112.3280         0.000000   
     55. A(H  18,C  15,N  21)          108.1936         0.000000   
     56. A(H  17,C  15,N  21)          109.4083         0.000000   
     57. A(C  14,C  15,N  21)          100.3028         0.000000   
     58. A(C   3,O  19,H  20)          107.8269         0.000000   
     59. A(H  23,N  21,H  24)          105.6484         0.000000   
     60. A(H  22,N  21,H  24)          112.4312         0.000000   
     61. A(C  15,N  21,H  24)          106.4070         0.000000   
     62. A(H  22,N  21,H  23)          109.4030         0.000000   
     63. A(C  15,N  21,H  23)          108.3315         0.000000   
     64. A(C  15,N  21,H  22)          114.1918         0.000000   
     65. D(H   4,C   2,N   0,C   7)     44.7000         0.000000   
     66. D(H   5,C   2,N   0,C   7)    163.2627         0.000000   
     67. D(H   5,C   2,N   0,H   1)    -36.2976         0.000000   
     68. D(H   4,C   2,N   0,H   1)   -154.8603         0.000000   
     69. D(C   3,C   2,N   0,H   1)     85.6780         0.000000   
     70. D(C   3,C   2,N   0,C   7)    -74.7617         0.000000   
     71. D(O   6,C   3,C   2,H   4)   -114.1734         0.000000   
     72. D(O  19,C   3,C   2,H   5)    -53.1087         0.000000   
     73. D(O  19,C   3,C   2,H   4)     65.1712         0.000000   
     74. D(O   6,C   3,C   2,H   5)    127.5467         0.000000   
     75. D(O  19,C   3,C   2,N   0)   -174.9044         0.000000   
     76. D(O   6,C   3,C   2,N   0)      5.7509         0.000000   
     77. D(O   9,C   7,N   0,H   1)   -171.8351         0.000000   
     78. D(C   8,C   7,N   0,C   2)    170.1679         0.000000   
     79. D(C   8,C   7,N   0,H   1)      9.8203         0.000000   
     80. D(O   9,C   7,N   0,C   2)    -11.4876         0.000000   
     81. D(H  12,C   8,C   7,O   9)    136.9264         0.000000   
     82. D(H  12,C   8,C   7,N   0)    -44.7314         0.000000   
     83. D(H  11,C   8,C   7,O   9)   -103.0336         0.000000   
     84. D(N  10,C   8,C   7,O   9)     15.3314         0.000000   
     85. D(N  10,C   8,C   7,N   0)   -166.3264         0.000000   
     86. D(H  11,C   8,C   7,N   0)     75.3086         0.000000   
     87. D(C  14,N  10,C   8,H  12)    166.7329         0.000000   
     88. D(C  14,N  10,C   8,H  11)     47.3375         0.000000   
     89. D(C  14,N  10,C   8,C   7)    -71.3208         0.000000   
     90. D(H  13,N  10,C   8,H  12)    -49.3040         0.000000   
     91. D(H  13,N  10,C   8,H  11)   -168.6994         0.000000   
     92. D(H  13,N  10,C   8,C   7)     72.6423         0.000000   
     93. D(O  16,C  14,N  10,C   8)    -30.0100         0.000000   
     94. D(C  15,C  14,N  10,H  13)     -5.5101         0.000000   
     95. D(C  15,C  14,N  10,C   8)    137.8582         0.000000   
     96. D(O  16,C  14,N  10,H  13)   -173.3782         0.000000   
     97. D(N  21,C  15,C  14,O  16)     63.1050         0.000000   
     98. D(N  21,C  15,C  14,N  10)   -105.5578         0.000000   
     99. D(H  18,C  15,C  14,O  16)    179.0001         0.000000   
    100. D(H  18,C  15,C  14,N  10)     10.3372         0.000000   
    101. D(H  17,C  15,C  14,O  16)    -52.9845         0.000000   
    102. D(H  17,C  15,C  14,N  10)    138.3526         0.000000   
    103. D(H  20,O  19,C   3,O   6)     -0.5661         0.000000   
    104. D(H  20,O  19,C   3,C   2)   -179.9004         0.000000   
    105. D(H  24,N  21,C  15,H  18)    -74.4148         0.000000   
    106. D(H  24,N  21,C  15,H  17)    164.9357         0.000000   
    107. D(H  24,N  21,C  15,C  14)     46.6776         0.000000   
    108. D(H  23,N  21,C  15,H  18)    172.3956         0.000000   
    109. D(H  23,N  21,C  15,H  17)     51.7461         0.000000   
    110. D(H  23,N  21,C  15,C  14)    -66.5120         0.000000   
    111. D(H  22,N  21,C  15,H  18)     50.2202         0.000000   
    112. D(H  22,N  21,C  15,H  17)    -70.4293         0.000000   
    113. D(H  22,N  21,C  15,C  14)    171.3127         0.000000   
    -----------------------------------------------------------------

Number of atoms                         .... 25
Number of degrees of freedom            .... 113

         *************************************************************
         *                GEOMETRY OPTIMIZATION CYCLE   1            *
         *************************************************************
---------------------------------
CARTESIAN COORDINATES (ANGSTROEM)
---------------------------------
  N     -1.208707    1.779137    2.953685
  H     -1.968972    2.295970    2.512598
  C     -1.262731    1.596066    4.393431
  C     -2.102851    0.358753    4.739425
  H     -0.242345    1.450111    4.783195
  H     -1.685278    2.492700    4.872826
  O     -2.553897   -0.408578    3.916424
  C     -0.443591    0.989643    2.178935
  C     -0.646481    1.124413    0.649441
  O      0.404991    0.215008    2.665826
  N      0.000000    0.000000    0.000000
  H     -0.171045    2.056306    0.301004
  H     -1.717207    1.154188    0.393229
  H     -0.468199   -0.900222    0.104506
  C      1.368463    0.000000    0.000000
  C      2.042118   -1.351074    0.290431
  O      2.063532    1.008005    0.000000
  H      2.908260   -1.534617   -0.361403
  H      1.368154   -2.220515    0.294738
  O     -2.249019    0.247050    6.069683
  H     -2.788377   -0.553936    6.246565
  N      2.519751   -1.116369    1.707328
  H      2.890488   -1.957404    2.172628
  H      3.250559   -0.384287    1.687303
  H      1.686592   -0.682190    2.242500

----------------------------
CARTESIAN COORDINATES (A.U.)
----------------------------
  NO LB      ZA    FRAG     MASS         X           Y           Z
   0 N     7.0000    0    14.007   -2.284125    3.362082    5.581656
   1 H     1.0000    0     1.008   -3.720818    4.338755    4.748122
   2 C     6.0000    0    12.011   -2.386216    3.016128    8.302381
   3 C     6.0000    0    12.011   -3.973812    0.677945    8.956215
   4 H     1.0000    0     1.008   -0.457966    2.740313    9.038929
   5 H     1.0000    0     1.008   -3.184714    4.710520    9.208307
   6 O     8.0000    0    15.999   -4.826166   -0.772101    7.400969
   7 C     6.0000    0    12.011   -0.838266    1.870154    4.117590
   8 C     6.0000    0    12.011   -1.221672    2.124833    1.227266
   9 O     8.0000    0    15.999    0.765322    0.406306    5.037681
  10 N     7.0000    0    14.007    0.000000    0.000000    0.000000
  11 H     1.0000    0     1.008   -0.323228    3.885855    0.568815
  12 H     1.0000    0     1.008   -3.245051    2.181099    0.743095
  13 H     1.0000    0     1.008   -0.884768   -1.701173    0.197488
  14 C     6.0000    0    12.011    2.586020    0.000000    0.000000
  15 C     6.0000    0    12.011    3.859044   -2.553160    0.548835
  16 O     8.0000    0    15.999    3.899510    1.904853    0.000000
  17 H     1.0000    0     1.008    5.495815   -2.900006   -0.682953
  18 H     1.0000    0     1.008    2.585436   -4.196165    0.556974
  19 O     8.0000    0    15.999   -4.250030    0.466857   11.470039
  20 H     1.0000    0     1.008   -5.269269   -1.046787   11.804297
  21 N     7.0000    0    14.007    4.761639   -2.109632    3.226382
  22 H     1.0000    0     1.008    5.462231   -3.698957    4.105672
  23 H     1.0000    0     1.008    6.142666   -0.726197    3.188541
  24 H     1.0000    0     1.008    3.187197   -1.289152    4.237711

--------------------------------
INTERNAL COORDINATES (ANGSTROEM)
--------------------------------
 N      0   0   0     0.000000000000     0.00000000     0.00000000
 H      1   0   0     1.019645507852     0.00000000     0.00000000
 C      1   2   0     1.452343667364   117.70981225     0.00000000
 C      3   1   2     1.535075542898   110.20598832    85.67798460
 H      3   1   2     1.102001101051   109.44316966   205.13970109
 H      3   1   2     1.101053160928   110.07475217   323.70239092
 O      4   3   1     1.212258224834   124.11154274     5.75091234
 C      1   2   3     1.344968710414   118.19731236   161.04080618
 C      8   1   2     1.548766993784   116.31241382     9.82033986
 O      8   1   2     1.247883664381   121.76749661   188.16486982
 N      9   8   1     1.450522626646   108.44037799   193.67356157
 H      9   8   1     1.102665994993   109.21537747    75.30861299
 H      9   8   1     1.101356121627   111.06632917   315.26860158
 H     11   9   8     1.020064437632   115.70066983    72.64231263
 C     11   9   8     1.368463000000   116.46738602   288.67920679
 C     15  11   9     1.537388102680   115.98791010   137.85817489
 O     15  11   9     1.224416185284   124.58817218   329.99003200
 H     16  15  11     1.099444205301   112.32799293   138.35260884
 H     16  15  11     1.100078940816   115.26787379    10.33721947
 O      4   3   1     1.342918087970   110.47999481   185.09558648
 H     20   4   3     0.981719341912   107.82688694   180.09958136
 N     16  15  11     1.513544458654   100.30277885   254.44217629
 H     22  16  15     1.030189246883   114.19178288   171.31265200
 H     22  16  15     1.034613642000   108.33147210   293.48803977
 H     22  16  15     1.081237435953   106.40698160    46.67763676

---------------------------
INTERNAL COORDINATES (A.U.)
---------------------------
 N      0   0   0     0.000000000000     0.00000000     0.00000000
 H      1   0   0     1.926850763524     0.00000000     0.00000000
 C      1   2   0     2.744531783653   117.70981225     0.00000000
 C      3   1   2     2.900872370959   110.20598832    85.67798460
 H      3   1   2     2.082480280266   109.44316966   205.13970109
 H      3   1   2     2.080688933043   110.07475217   323.70239092
 O      4   3   1     2.290836048530   124.11154274     5.75091234
 C      1   2   3     2.541622521375   118.19731236   161.04080618
 C      8   1   2     2.926745463509   116.31241382     9.82033986
 O      8   1   2     2.358158372675   121.76749661   188.16486982
 N      9   8   1     2.741090515416   108.44037799   193.67356157
 H      9   8   1     2.083736747725   109.21537747    75.30861299
 H      9   8   1     2.081261445792   111.06632917   315.26860158
 H     11   9   8     1.927642426076   115.70066983    72.64231263
 C     11   9   8     2.586020294404   116.46738602   288.67920679
 C     15  11   9     2.905242475614   115.98791010   137.85817489
 O     15  11   9     2.313811264128   124.58817218   329.99003200
 H     16  15  11     2.077648447545   112.32799293   138.35260884
 H     16  15  11     2.078847923836   115.26787379    10.33721947
 O      4   3   1     2.537747406552   110.47999481   185.09558648
 H     20   4   3     1.855180696587   107.82688694   180.09958136
 N     16  15  11     2.860184518371   100.30277885   254.44217629
 H     22  16  15     1.946775542720   114.19178288   171.31265200
 H     22  16  15     1.955136437799   108.33147210   293.48803977
 H     22  16  15     2.043242639694   106.40698160    46.67763676

---------------------
BASIS SET INFORMATION
---------------------
There are 4 groups of distinct atoms

 Group   1 Type N   : 11s6p2d1f contracted to 5s3p2d1f pattern {62111/411/11/1}
 Group   2 Type H   : 5s2p1d contracted to 3s2p1d pattern {311/11/1}
 Group   3 Type C   : 11s6p2d1f contracted to 5s3p2d1f pattern {62111/411/11/1}
 Group   4 Type O   : 11s6p2d1f contracted to 5s3p2d1f pattern {62111/411/11/1}

Atom   0N    basis set group =>   1
Atom   1H    basis set group =>   2
Atom   2C    basis set group =>   3
Atom   3C    basis set group =>   3
Atom   4H    basis set group =>   2
Atom   5H    basis set group =>   2
Atom   6O    basis set group =>   4
Atom   7C    basis set group =>   3
Atom   8C    basis set group =>   3
Atom   9O    basis set group =>   4
Atom  10N    basis set group =>   1
Atom  11H    basis set group =>   2
Atom  12H    basis set group =>   2
Atom  13H    basis set group =>   2
Atom  14C    basis set group =>   3
Atom  15C    basis set group =>   3
Atom  16O    basis set group =>   4
Atom  17H    basis set group =>   2
Atom  18H    basis set group =>   2
Atom  19O    basis set group =>   4
Atom  20H    basis set group =>   2
Atom  21N    basis set group =>   1
Atom  22H    basis set group =>   2
Atom  23H    basis set group =>   2
Atom  24H    basis set group =>   2
---------------------------------
AUXILIARY/J BASIS SET INFORMATION
---------------------------------
There are 4 groups of distinct atoms

 Group   1 Type N   : 12s5p4d2f1g contracted to 6s4p3d1f1g pattern {711111/2111/211/2/1}
 Group   2 Type H   : 5s2p1d contracted to 3s1p1d pattern {311/2/1}
 Group   3 Type C   : 12s5p4d2f1g contracted to 6s4p3d1f1g pattern {711111/2111/211/2/1}
 Group   4 Type O   : 12s5p4d2f1g contracted to 6s4p3d1f1g pattern {711111/2111/211/2/1}

Atom   0N    basis set group =>   1
Atom   1H    basis set group =>   2
Atom   2C    basis set group =>   3
Atom   3C    basis set group =>   3
Atom   4H    basis set group =>   2
Atom   5H    basis set group =>   2
Atom   6O    basis set group =>   4
Atom   7C    basis set group =>   3
Atom   8C    basis set group =>   3
Atom   9O    basis set group =>   4
Atom  10N    basis set group =>   1
Atom  11H    basis set group =>   2
Atom  12H    basis set group =>   2
Atom  13H    basis set group =>   2
Atom  14C    basis set group =>   3
Atom  15C    basis set group =>   3
Atom  16O    basis set group =>   4
Atom  17H    basis set group =>   2
Atom  18H    basis set group =>   2
Atom  19O    basis set group =>   4
Atom  20H    basis set group =>   2
Atom  21N    basis set group =>   1
Atom  22H    basis set group =>   2
Atom  23H    basis set group =>   2
Atom  24H    basis set group =>   2


           ************************************************************
           *        Program running with 8 parallel MPI-processes     *
           *              working on a common directory               *
           ************************************************************
------------------------------------------------------------------------------
                           ORCA GTO INTEGRAL CALCULATION
                           -- RI-GTO INTEGRALS CHOSEN --
------------------------------------------------------------------------------
------------------------------------------------------------------------------
                   ___                                                        
                  /   \      - P O W E R E D   B Y -                         
                 /     \                                                     
                 |  |  |   _    _      __       _____    __    __             
                 |  |  |  | |  | |    /  \     |  _  \  |  |  /  |          
                  \  \/   | |  | |   /    \    | | | |  |  | /  /          
                 / \  \   | |__| |  /  /\  \   | |_| |  |  |/  /          
                |  |  |   |  __  | /  /__\  \  |    /   |      \           
                |  |  |   | |  | | |   __   |  |    \   |  |\   \          
                \     /   | |  | | |  |  |  |  | |\  \  |  | \   \       
                 \___/    |_|  |_| |__|  |__|  |_| \__\ |__|  \__/        
                                                                              
                      - O R C A' S   B I G   F R I E N D -                    
                                      &                                       
                       - I N T E G R A L  F E E D E R -                       
                                                                              
 v1 FN, 2020, v2 2021                                                         
------------------------------------------------------------------------------


Reading SHARK input file GGG-H_tt_004_OptFreq.SHARKINP.tmp ... ok
----------------------
SHARK INTEGRAL PACKAGE
----------------------

Number of atoms                             ...     25
Number of basis functions                   ...    571
Number of shells                            ...    215
Maximum angular momentum                    ...      3
Integral batch strategy                     ... SHARK/LIBINT Hybrid
RI-J (if used) integral strategy            ... SPLIT-RIJ (Revised 2003 algorithm where possible)
Printlevel                                  ...      1
Contraction scheme used                     ... SEGMENTED contraction
Coulomb Range Separation                    ... NOT USED
Exchange Range Separation                   ... Long Range
   Mu parameter                             ...  0.300000
   Scaling (regular/separated)              ...  0.167000  0.833000
Finite Nucleus Model                        ... NOT USED
Auxiliary Coulomb fitting basis             ... AVAILABLE
   # of basis functions in Aux-J            ...    769
   # of shells in Aux-J                     ...    255
   Maximum angular momentum in Aux-J        ...      4
Auxiliary J/K fitting basis                 ... NOT available
Auxiliary Correlation fitting basis         ... NOT available
Auxiliary 'external' fitting basis          ... NOT available
Integral threshold                          ...     1.000000e-12
Primitive cut-off                           ...     1.000000e-14
Primitive pair pre-selection threshold      ...     1.000000e-14

Calculating pre-screening integrals         ... done (  0.0 sec) Dimension = 215
Organizing shell pair data                  ... done (  0.2 sec)
Shell pair information
Total number of shell pairs                 ...     23220
Shell pairs after pre-screening             ...     18887
Total number of primitive shell pairs       ...     63868
Primitive shell pairs kept                  ...     38045
          la=0 lb=0:   4164 shell pairs
          la=1 lb=0:   5334 shell pairs
          la=1 lb=1:   1745 shell pairs
          la=2 lb=0:   2975 shell pairs
          la=2 lb=1:   1956 shell pairs
          la=2 lb=2:    564 shell pairs
          la=3 lb=0:   1029 shell pairs
          la=3 lb=1:    675 shell pairs
          la=3 lb=2:    377 shell pairs
          la=3 lb=3:     68 shell pairs

Calculating one electron integrals          ... done (  0.0 sec)
Calculating RI/J V-Matrix + Cholesky decomp.... done (  0.4 sec)
Calculating Nuclear repulsion               ... done (  0.0 sec) ENN=    855.183288842691 Eh

SHARK setup successfully completed in   1.9 seconds

Maximum memory used throughout the entire GTOINT-calculation: 30.8 MB


           ************************************************************
           *        Program running with 8 parallel MPI-processes     *
           *              working on a common directory               *
           ************************************************************
-------------------------------------------------------------------------------
                                 ORCA SCF
-------------------------------------------------------------------------------

------------
SCF SETTINGS
------------
Hamiltonian:
 Density Functional     Method          .... DFT(GTOs)
 Exchange Functional    Exchange        .... WB97X-V
 Correlation Functional Correlation     .... WB97X-V
 Gradients option       PostSCFGGA      .... off
 Hybrid DFT is turned on
   Fraction HF Exchange ScalHFX         ....  0.167000
   Scaling of DF-GGA-X  ScalDFX         ....  0.000000
   Scaling of DF-GGA-C  ScalDFC         ....  1.000000
   Scaling of DF-LDA-C  ScalLDAC        ....  1.000000
   Perturbative correction              ....  0.000000
   Density functional embedding theory  .... OFF
 Long-range corrected/Screened/Range-Separated Hybrid DFT is turned on
   Amount of maximum screened exact exchange              ....  0.833000
   Range separation parameter mu (erf(mu*r12)/r12)        ....  0.300000
 RI-approximation to the Coulomb term is turned on
   Number of AuxJ basis functions       .... 769
   RIJ-COSX (HFX calculated with COS-X)).... on


General Settings:
 Integral files         IntName         .... GGG-H_tt_004_OptFreq
 Hartree-Fock type      HFTyp           .... RHF
 Total Charge           Charge          ....    1
 Multiplicity           Mult            ....    1
 Number of Electrons    NEL             ....  100
 Basis Dimension        Dim             ....  571
 Nuclear Repulsion      ENuc            ....    855.1832888427 Eh

Convergence Acceleration:
 DIIS                   CNVDIIS         .... on
   Start iteration      DIISMaxIt       ....    12
   Startup error        DIISStart       ....  0.200000
   # of expansion vecs  DIISMaxEq       ....     5
   Bias factor          DIISBfac        ....   1.050
   Max. coefficient     DIISMaxC        ....  10.000
 Trust-Rad. Augm. Hess. CNVTRAH         .... auto
   Auto Start mean grad. ratio tolernc. ....  1.125000
   Auto Start start iteration           ....    20
   Auto Start num. interpolation iter.  ....    10
   Max. Number of Micro iterations      ....    16
   Max. Number of Macro iterations      .... Maxiter - #DIIS iter
   Number of Davidson start vectors     ....     2
   Converg. threshold I  (grad. norm)   ....   2.000e-06
   Converg. threshold II (energy diff.) ....   1.000e-09
   Grad. Scal. Fac. for Micro threshold ....   0.100
   Minimum threshold for Micro iter.    ....   0.010
   NR start threshold (gradient norm)   ....   0.001
   Initial trust radius                 ....   0.400
   Minimum AH scaling param. (alpha)    ....   1.000
   Maximum AH scaling param. (alpha)    .... 1000.000
   Orbital update algorithm             .... Taylor
   White noise on init. David. guess    .... on
   Maximum white noise                  ....   0.010
   Quad. conv. algorithm                .... NR
 SOSCF                  CNVSOSCF        .... on
   Start iteration      SOSCFMaxIt      ....   150
   Startup grad/error   SOSCFStart      ....  0.003300
 Level Shifting         CNVShift        .... on
   Level shift para.    LevelShift      ....    0.2500
   Turn off err/grad.   ShiftErr        ....    0.0010
 Zerner damping         CNVZerner       .... off
 Static damping         CNVDamp         .... on
   Fraction old density DampFac         ....    0.7000
   Max. Damping (<1)    DampMax         ....    0.9800
   Min. Damping (>=0)   DampMin         ....    0.0000
   Turn off err/grad.   DampErr         ....    0.1000
 Fernandez-Rico         CNVRico         .... off

SCF Procedure:
 Maximum # iterations   MaxIter         ....   125
 SCF integral mode      SCFMode         .... Direct
   Integral package                     .... SHARK and LIBINT hybrid scheme
 Reset frequency        DirectResetFreq ....    20
 Integral Threshold     Thresh          ....  1.000e-12 Eh
 Primitive CutOff       TCut            ....  1.000e-14 Eh

Convergence Tolerance:
 Convergence Check Mode ConvCheckMode   .... Total+1el-Energy
 Convergence forced     ConvForced      .... 0
 Energy Change          TolE            ....  1.000e-09 Eh
 1-El. energy change                    ....  1.000e-06 Eh
 Orbital Gradient       TolG            ....  2.000e-06
 Orbital Rotation angle TolX            ....  2.000e-06
 DIIS Error             TolErr          ....  1.000e-08


Diagonalization of the overlap matrix:
Smallest eigenvalue                        ... 1.257e-04
Time for diagonalization                   ...    0.054 sec
Threshold for overlap eigenvalues          ... 1.000e-08
Number of eigenvalues below threshold      ... 0
Time for construction of square roots      ...    0.290 sec
Total time needed                          ...    0.365 sec

Time for model grid setup =    0.556 sec

------------------------------
INITIAL GUESS: MODEL POTENTIAL
------------------------------
Loading Hartree-Fock densities                     ... done
Calculating cut-offs                               ... done
Initializing the effective Hamiltonian             ... done
Setting up the integral package (SHARK)            ... done
Starting the Coulomb interaction                   ... done (   0.2 sec)
Reading the grid                                   ... done
Mapping shells                                     ... done
Starting the XC term evaluation                    ... done (   0.1 sec)
  promolecular density results
     # of electrons  =    100.996612832
     EX              =    -58.968457447
     EC              =     -4.266268904
     EX+EC           =    -63.234726351
Transforming the Hamiltonian                       ... done (   0.0 sec)
Diagonalizing the Hamiltonian                      ... done (   0.1 sec)
Back transforming the eigenvectors                 ... done (   0.0 sec)
Now organizing SCF variables                       ... done
                      ------------------
                      INITIAL GUESS DONE (   1.0 sec)
                      ------------------
-------------------
DFT GRID GENERATION
-------------------

General Integration Accuracy     IntAcc      ... 4.959
Radial Grid Type                 RadialGrid  ... OptM3 with GC (2021)
Angular Grid (max. ang.)         AngularGrid ... 6 (Lebedev-590)
Angular grid pruning method      GridPruning ... 4 (adaptive)
Weight generation scheme         WeightScheme... Becke
Basis function cutoff            BFCut       ... 1.0000e-12
Integration weight cutoff        WCut        ... 1.0000e-14
Angular grids for H and He will be reduced by one unit
Partially contracted basis set               ... off
Rotationally invariant grid construction     ... off

Total number of grid points                  ...   289317
Total number of batches                      ...     4535
Average number of points per batch           ...       63
Average number of grid points per atom       ...    11573
Time for grid setup =    3.493 sec

--------------------
COSX GRID GENERATION
--------------------

GRIDX 1
-------
General Integration Accuracy     IntAcc      ... 4.020
Radial Grid Type                 RadialGrid  ... OptM3 with GC (2021)
Angular Grid (max. ang.)         AngularGrid ... 2 (Lebedev-110)
Angular grid pruning method      GridPruning ... 4 (adaptive)
Weight generation scheme         WeightScheme... Becke
Basis function cutoff            BFCut       ... 1.0000e-12
Integration weight cutoff        WCut        ... 1.0000e-14
Angular grids for H and He will be reduced by one unit
Partially contracted basis set               ... on
Rotationally invariant grid construction     ... off

Total number of grid points                  ...    32249
Total number of batches                      ...      518
Average number of points per batch           ...       62
Average number of grid points per atom       ...     1290
UseSFitting                                  ... on

GRIDX 2
-------
General Integration Accuracy     IntAcc      ... 4.338
Radial Grid Type                 RadialGrid  ... OptM3 with GC (2021)
Angular Grid (max. ang.)         AngularGrid ... 3 (Lebedev-194)
Angular grid pruning method      GridPruning ... 4 (adaptive)
Weight generation scheme         WeightScheme... Becke
Basis function cutoff            BFCut       ... 1.0000e-12
Integration weight cutoff        WCut        ... 1.0000e-14
Angular grids for H and He will be reduced by one unit
Partially contracted basis set               ... on
Rotationally invariant grid construction     ... off

Total number of grid points                  ...    70683
Total number of batches                      ...     1119
Average number of points per batch           ...       63
Average number of grid points per atom       ...     2827
UseSFitting                                  ... on

GRIDX 3
-------
General Integration Accuracy     IntAcc      ... 4.871
Radial Grid Type                 RadialGrid  ... OptM3 with GC (2021)
Angular Grid (max. ang.)         AngularGrid ... 4 (Lebedev-302)
Angular grid pruning method      GridPruning ... 4 (adaptive)
Weight generation scheme         WeightScheme... Becke
Basis function cutoff            BFCut       ... 1.0000e-12
Integration weight cutoff        WCut        ... 1.0000e-14
Angular grids for H and He will be reduced by one unit
Partially contracted basis set               ... on
Rotationally invariant grid construction     ... off

Total number of grid points                  ...   133862
Total number of batches                      ...     2106
Average number of points per batch           ...       63
Average number of grid points per atom       ...     5354
UseSFitting                                  ... on

Time for X-Grid setup             =    2.384 sec

--------------
SCF ITERATIONS
--------------
ITER       Energy         Delta-E        Max-DP      RMS-DP      [F,P]     Damp
               ***  Starting incremental Fock matrix formation  ***
  0   -701.1709919214   0.000000000000 0.05141147  0.00046612  0.3425766 0.7000
                      *** Initiating the SOSCF procedure ***
                      *** Re-Reading the Fockian *** 
                      *** Removing any level shift *** 
ITER      Energy       Delta-E        Grad      Rot      Max-DP    RMS-DP
  1   -701.21600088  -0.0450089582  0.003111  0.003111  0.146941  0.001401
               *** Restarting incremental Fock matrix formation ***
  2   -701.28723143  -0.0712305523  0.015817  0.030643  0.050505  0.000548
  3   -701.28525765   0.0019737777  0.030963  0.027662  0.021577  0.000227
  4   -701.30137399  -0.0161163371  0.001829  0.002375  0.012572  0.000107
  5   -701.30149924  -0.0001252512  0.002681  0.002579  0.002606  0.000032
  6   -701.30179081  -0.0002915702  0.000318  0.000705  0.000668  0.000010
  7   -701.30179546  -0.0000046455  0.000187  0.000456  0.000747  0.000006
  8   -701.30179829  -0.0000028311  0.000056  0.000196  0.000155  0.000002
  9   -701.30179835  -0.0000000600  0.000059  0.000053  0.000054  0.000001
 10   -701.30179844  -0.0000000863  0.000006  0.000015  0.000038  0.000000
 11   -701.30179844  -0.0000000024  0.000004  0.000010  0.000006  0.000000
 12   -701.30179844  -0.0000000016  0.000002  0.000007  0.000003  0.000000
 13   -701.30179844  -0.0000000002  0.000001  0.000003  0.000001  0.000000
                  ***Gradient check signals convergence***
              ***Rediagonalizing the Fockian in SOSCF/NRSCF***

               *****************************************************
               *                     SUCCESS                       *
               *           SCF CONVERGED AFTER  14 CYCLES          *
               *****************************************************

Old exchange energy                            =    -27.832353280 Eh
New exchange energy                            =    -27.832352135 Eh
Exchange energy change after final integration =      0.000001145 Eh
Total energy after final integration           =   -701.301797294 Eh
Final COS-X integration done in                =    30.418 sec

----------------
TOTAL SCF ENERGY
----------------

Total Energy       :         -701.30179729 Eh          -19083.39209 eV

Components:
Nuclear Repulsion  :          855.18328884 Eh           23270.72035 eV
Electronic Energy  :        -1556.48508614 Eh          -42354.11244 eV
One Electron Energy:        -2639.24639217 Eh          -71817.54546 eV
Two Electron Energy:         1082.76130603 Eh           29463.43303 eV
Max COSX asymmetry :            0.00000103 Eh               0.00003 eV

Virial components:
Potential Energy   :        -1399.27434476 Eh          -38076.19068 eV
Kinetic Energy     :          697.97254747 Eh           18992.79859 eV
Virial Ratio       :            2.00476989


DFT components:
N(Alpha)           :       49.999998988521 electrons
N(Beta)            :       49.999998988521 electrons
N(Total)           :       99.999997977043 electrons
E(X)               :      -60.047771662515 Eh       
E(C)               :       -4.264660660273 Eh       
E(XC)              :      -64.312432322788 Eh       
DFET-embed. en.    :        0.000000000000 Eh       

---------------
SCF CONVERGENCE
---------------

  Last Energy change         ...    5.5900e-10  Tolerance :   1.0000e-09
  Last MAX-Density change    ...    1.8874e-15  Tolerance :   1.0000e-08
  Last RMS-Density change    ...    1.3349e-17  Tolerance :   1.0000e-09
  Last Orbital Gradient      ...    4.2706e-07  Tolerance :   2.0000e-06
  Last Orbital Rotation      ...    7.9192e-07  Tolerance :   2.0000e-06

             **** THE GBW FILE WAS UPDATED (GGG-H_tt_004_OptFreq.gbw) ****
             **** DENSITY GGG-H_tt_004_OptFreq.scfp WAS UPDATED ****
             **** ENERGY FILE WAS UPDATED (GGG-H_tt_004_OptFreq.en.tmp) ****
             **** THE GBW FILE WAS UPDATED (GGG-H_tt_004_OptFreq.gbw) ****
             **** DENSITY GGG-H_tt_004_OptFreq.scfp WAS UPDATED ****
----------------
ORBITAL ENERGIES
----------------

  NO   OCC          E(Eh)            E(eV) 
   0   2.0000     -19.382474      -527.4239 
   1   2.0000     -19.350809      -526.5623 
   2   2.0000     -19.344449      -526.3892 
   3   2.0000     -19.325528      -525.8743 
   4   2.0000     -14.688078      -399.6829 
   5   2.0000     -14.596062      -397.1791 
   6   2.0000     -14.594610      -397.1395 
   7   2.0000     -10.544390      -286.9274 
   8   2.0000     -10.542798      -286.8841 
   9   2.0000     -10.532016      -286.5907 
  10   2.0000     -10.508557      -285.9524 
  11   2.0000     -10.472538      -284.9722 
  12   2.0000     -10.458355      -284.5863 
  13   2.0000      -1.360512       -37.0214 
  14   2.0000      -1.345391       -36.6099 
  15   2.0000      -1.328277       -36.1443 
  16   2.0000      -1.282102       -34.8878 
  17   2.0000      -1.270028       -34.5592 
  18   2.0000      -1.218144       -33.1474 
  19   2.0000      -1.212722       -32.9999 
  20   2.0000      -1.052964       -28.6526 
  21   2.0000      -1.025431       -27.9034 
  22   2.0000      -0.978472       -26.6256 
  23   2.0000      -0.885914       -24.1070 
  24   2.0000      -0.883075       -24.0297 
  25   2.0000      -0.861130       -23.4325 
  26   2.0000      -0.856093       -23.2955 
  27   2.0000      -0.837737       -22.7960 
  28   2.0000      -0.800272       -21.7765 
  29   2.0000      -0.788000       -21.4426 
  30   2.0000      -0.759450       -20.6657 
  31   2.0000      -0.752867       -20.4866 
  32   2.0000      -0.740466       -20.1491 
  33   2.0000      -0.731507       -19.9053 
  34   2.0000      -0.718750       -19.5582 
  35   2.0000      -0.707913       -19.2633 
  36   2.0000      -0.698348       -19.0030 
  37   2.0000      -0.688860       -18.7448 
  38   2.0000      -0.684446       -18.6247 
  39   2.0000      -0.673887       -18.3374 
  40   2.0000      -0.640186       -17.4203 
  41   2.0000      -0.635545       -17.2941 
  42   2.0000      -0.628161       -17.0931 
  43   2.0000      -0.620147       -16.8751 
  44   2.0000      -0.552319       -15.0294 
  45   2.0000      -0.549312       -14.9475 
  46   2.0000      -0.535602       -14.5745 
  47   2.0000      -0.530734       -14.4420 
  48   2.0000      -0.517514       -14.0823 
  49   2.0000      -0.507082       -13.7984 
  50   0.0000      -0.082771        -2.2523 
  51   0.0000      -0.060632        -1.6499 
  52   0.0000      -0.052175        -1.4197 
  53   0.0000      -0.026338        -0.7167 
  54   0.0000      -0.024938        -0.6786 
  55   0.0000      -0.016702        -0.4545 
  56   0.0000      -0.003161        -0.0860 
  57   0.0000       0.008988         0.2446 
  58   0.0000       0.014720         0.4005 
  59   0.0000       0.032787         0.8922 
  60   0.0000       0.035412         0.9636 
  61   0.0000       0.047445         1.2910 
  62   0.0000       0.063735         1.7343 
  63   0.0000       0.072545         1.9740 
  64   0.0000       0.078379         2.1328 
  65   0.0000       0.085554         2.3280 
  66   0.0000       0.094879         2.5818 
  67   0.0000       0.107880         2.9356 
  68   0.0000       0.112552         3.0627 
  69   0.0000       0.116186         3.1616 
  70   0.0000       0.123624         3.3640 
  71   0.0000       0.125942         3.4271 
  72   0.0000       0.135915         3.6984 
  73   0.0000       0.159379         4.3369 
  74   0.0000       0.164056         4.4642 
  75   0.0000       0.174022         4.7354 
  76   0.0000       0.190720         5.1898 
  77   0.0000       0.196002         5.3335 
  78   0.0000       0.198952         5.4138 
  79   0.0000       0.213292         5.8040 
  80   0.0000       0.226757         6.1704 
  81   0.0000       0.232325         6.3219 
  82   0.0000       0.238316         6.4849 
  83   0.0000       0.246077         6.6961 
  84   0.0000       0.262188         7.1345 
  85   0.0000       0.264873         7.2075 
  86   0.0000       0.277159         7.5419 
  87   0.0000       0.293013         7.9733 
  88   0.0000       0.294858         8.0235 
  89   0.0000       0.302806         8.2398 
  90   0.0000       0.308846         8.4041 
  91   0.0000       0.315844         8.5945 
  92   0.0000       0.324892         8.8408 
  93   0.0000       0.327390         8.9087 
  94   0.0000       0.328398         8.9362 
  95   0.0000       0.332404         9.0452 
  96   0.0000       0.344656         9.3786 
  97   0.0000       0.351422         9.5627 
  98   0.0000       0.354161         9.6372 
  99   0.0000       0.357098         9.7171 
 100   0.0000       0.368437        10.0257 
 101   0.0000       0.369491        10.0544 
 102   0.0000       0.378424        10.2974 
 103   0.0000       0.381115        10.3707 
 104   0.0000       0.387936        10.5563 
 105   0.0000       0.392075        10.6689 
 106   0.0000       0.394848        10.7444 
 107   0.0000       0.413507        11.2521 
 108   0.0000       0.415871        11.3164 
 109   0.0000       0.421601        11.4723 
 110   0.0000       0.425054        11.5663 
 111   0.0000       0.434314        11.8183 
 112   0.0000       0.445379        12.1194 
 113   0.0000       0.450576        12.2608 
 114   0.0000       0.464344        12.6354 
 115   0.0000       0.480885        13.0856 
 116   0.0000       0.492040        13.3891 
 117   0.0000       0.498106        13.5541 
 118   0.0000       0.504669        13.7328 
 119   0.0000       0.516277        14.0486 
 120   0.0000       0.525993        14.3130 
 121   0.0000       0.532409        14.4876 
 122   0.0000       0.538095        14.6423 
 123   0.0000       0.545441        14.8422 
 124   0.0000       0.570897        15.5349 
 125   0.0000       0.580153        15.7868 
 126   0.0000       0.588039        16.0014 
 127   0.0000       0.594753        16.1841 
 128   0.0000       0.612431        16.6651 
 129   0.0000       0.622286        16.9333 
 130   0.0000       0.637906        17.3583 
 131   0.0000       0.644667        17.5423 
 132   0.0000       0.662154        18.0181 
 133   0.0000       0.668255        18.1841 
 134   0.0000       0.679603        18.4929 
 135   0.0000       0.695252        18.9188 
 136   0.0000       0.705199        19.1894 
 137   0.0000       0.706511        19.2251 
 138   0.0000       0.714039        19.4300 
 139   0.0000       0.732228        19.9249 
 140   0.0000       0.750064        20.4103 
 141   0.0000       0.756060        20.5734 
 142   0.0000       0.770814        20.9749 
 143   0.0000       0.779649        21.2153 
 144   0.0000       0.794601        21.6222 
 145   0.0000       0.798563        21.7300 
 146   0.0000       0.812896        22.1200 
 147   0.0000       0.824985        22.4490 
 148   0.0000       0.839174        22.8351 
 149   0.0000       0.848205        23.0808 
 150   0.0000       0.861134        23.4326 
 151   0.0000       0.874523        23.7970 
 152   0.0000       0.880175        23.9508 
 153   0.0000       0.886952        24.1352 
 154   0.0000       0.894549        24.3419 
 155   0.0000       0.910588        24.7784 
 156   0.0000       0.914754        24.8917 
 157   0.0000       0.925992        25.1975 
 158   0.0000       0.941181        25.6108 
 159   0.0000       0.960039        26.1240 
 160   0.0000       0.961985        26.1769 
 161   0.0000       0.977656        26.6034 
 162   0.0000       0.988695        26.9038 
 163   0.0000       0.991648        26.9841 
 164   0.0000       1.004065        27.3220 
 165   0.0000       1.013740        27.5853 
 166   0.0000       1.017516        27.6880 
 167   0.0000       1.023698        27.8562 
 168   0.0000       1.030115        28.0309 
 169   0.0000       1.037442        28.2302 
 170   0.0000       1.046612        28.4797 
 171   0.0000       1.066905        29.0320 
 172   0.0000       1.074783        29.2463 
 173   0.0000       1.091052        29.6890 
 174   0.0000       1.094063        29.7710 
 175   0.0000       1.107175        30.1278 
 176   0.0000       1.114375        30.3237 
 177   0.0000       1.125037        30.6138 
 178   0.0000       1.134545        30.8725 
 179   0.0000       1.145825        31.1795 
 180   0.0000       1.153716        31.3942 
 181   0.0000       1.176257        32.0076 
 182   0.0000       1.181439        32.1486 
 183   0.0000       1.187128        32.3034 
 184   0.0000       1.195978        32.5442 
 185   0.0000       1.201669        32.6991 
 186   0.0000       1.212899        33.0046 
 187   0.0000       1.224394        33.3175 
 188   0.0000       1.235818        33.6283 
 189   0.0000       1.238519        33.7018 
 190   0.0000       1.253043        34.0970 
 191   0.0000       1.275038        34.6956 
 192   0.0000       1.302587        35.4452 
 193   0.0000       1.308392        35.6032 
 194   0.0000       1.338429        36.4205 
 195   0.0000       1.343542        36.5596 
 196   0.0000       1.357672        36.9441 
 197   0.0000       1.371191        37.3120 
 198   0.0000       1.379311        37.5330 
 199   0.0000       1.394282        37.9403 
 200   0.0000       1.398164        38.0460 
 201   0.0000       1.401358        38.1329 
 202   0.0000       1.408468        38.3264 
 203   0.0000       1.419265        38.6202 
 204   0.0000       1.440124        39.1878 
 205   0.0000       1.448300        39.4102 
 206   0.0000       1.455932        39.6179 
 207   0.0000       1.466853        39.9151 
 208   0.0000       1.472836        40.0779 
 209   0.0000       1.481319        40.3087 
 210   0.0000       1.497477        40.7484 
 211   0.0000       1.501211        40.8500 
 212   0.0000       1.512073        41.1456 
 213   0.0000       1.517189        41.2848 
 214   0.0000       1.526442        41.5366 
 215   0.0000       1.542330        41.9689 
 216   0.0000       1.558029        42.3961 
 217   0.0000       1.564102        42.5614 
 218   0.0000       1.581899        43.0457 
 219   0.0000       1.602219        43.5986 
 220   0.0000       1.606517        43.7155 
 221   0.0000       1.615958        43.9725 
 222   0.0000       1.626799        44.2674 
 223   0.0000       1.647208        44.8228 
 224   0.0000       1.654549        45.0226 
 225   0.0000       1.689187        45.9651 
 226   0.0000       1.703813        46.3631 
 227   0.0000       1.715345        46.6769 
 228   0.0000       1.734859        47.2079 
 229   0.0000       1.746999        47.5383 
 230   0.0000       1.761784        47.9406 
 231   0.0000       1.794157        48.8215 
 232   0.0000       1.805862        49.1400 
 233   0.0000       1.831851        49.8472 
 234   0.0000       1.847150        50.2635 
 235   0.0000       1.861003        50.6405 
 236   0.0000       1.880767        51.1783 
 237   0.0000       1.898636        51.6645 
 238   0.0000       1.905539        51.8524 
 239   0.0000       1.914552        52.0976 
 240   0.0000       1.934176        52.6316 
 241   0.0000       1.954685        53.1897 
 242   0.0000       1.963809        53.4380 
 243   0.0000       1.974553        53.7303 
 244   0.0000       1.986921        54.0669 
 245   0.0000       2.010231        54.7012 
 246   0.0000       2.011464        54.7347 
 247   0.0000       2.019585        54.9557 
 248   0.0000       2.059023        56.0289 
 249   0.0000       2.081571        56.6424 
 250   0.0000       2.093943        56.9791 
 251   0.0000       2.124989        57.8239 
 252   0.0000       2.152302        58.5671 
 253   0.0000       2.168413        59.0055 
 254   0.0000       2.189841        59.5886 
 255   0.0000       2.206536        60.0429 
 256   0.0000       2.222835        60.4864 
 257   0.0000       2.246670        61.1350 
 258   0.0000       2.258245        61.4500 
 259   0.0000       2.273055        61.8530 
 260   0.0000       2.310981        62.8850 
 261   0.0000       2.314390        62.9777 
 262   0.0000       2.324723        63.2589 
 263   0.0000       2.327171        63.3255 
 264   0.0000       2.371348        64.5276 
 265   0.0000       2.386708        64.9456 
 266   0.0000       2.412306        65.6422 
 267   0.0000       2.439405        66.3796 
 268   0.0000       2.455645        66.8215 
 269   0.0000       2.471108        67.2423 
 270   0.0000       2.500099        68.0311 
 271   0.0000       2.510387        68.3111 
 272   0.0000       2.513002        68.3823 
 273   0.0000       2.531988        68.8989 
 274   0.0000       2.548300        69.3428 
 275   0.0000       2.558152        69.6109 
 276   0.0000       2.569007        69.9062 
 277   0.0000       2.584963        70.3404 
 278   0.0000       2.604337        70.8676 
 279   0.0000       2.612303        71.0844 
 280   0.0000       2.626276        71.4646 
 281   0.0000       2.640792        71.8596 
 282   0.0000       2.662501        72.4503 
 283   0.0000       2.665449        72.5306 
 284   0.0000       2.681475        72.9666 
 285   0.0000       2.693531        73.2947 
 286   0.0000       2.702532        73.5396 
 287   0.0000       2.716965        73.9324 
 288   0.0000       2.728364        74.2426 
 289   0.0000       2.743311        74.6493 
 290   0.0000       2.761875        75.1544 
 291   0.0000       2.767254        75.3008 
 292   0.0000       2.791798        75.9687 
 293   0.0000       2.802105        76.2492 
 294   0.0000       2.812360        76.5282 
 295   0.0000       2.822113        76.7936 
 296   0.0000       2.831692        77.0543 
 297   0.0000       2.841183        77.3125 
 298   0.0000       2.861982        77.8785 
 299   0.0000       2.864185        77.9384 
 300   0.0000       2.888244        78.5931 
 301   0.0000       2.897372        78.8415 
 302   0.0000       2.907592        79.1196 
 303   0.0000       2.918123        79.4062 
 304   0.0000       2.927077        79.6498 
 305   0.0000       2.942067        80.0577 
 306   0.0000       2.952320        80.3367 
 307   0.0000       2.958509        80.5051 
 308   0.0000       2.971360        80.8548 
 309   0.0000       2.992365        81.4264 
 310   0.0000       3.003111        81.7188 
 311   0.0000       3.011241        81.9400 
 312   0.0000       3.016848        82.0926 
 313   0.0000       3.032614        82.5216 
 314   0.0000       3.045095        82.8612 
 315   0.0000       3.046844        82.9088 
 316   0.0000       3.062782        83.3425 
 317   0.0000       3.071268        83.5734 
 318   0.0000       3.077291        83.7373 
 319   0.0000       3.079558        83.7990 
 320   0.0000       3.093811        84.1869 
 321   0.0000       3.099433        84.3399 
 322   0.0000       3.103289        84.4448 
 323   0.0000       3.117661        84.8359 
 324   0.0000       3.132594        85.2422 
 325   0.0000       3.138485        85.4025 
 326   0.0000       3.156229        85.8854 
 327   0.0000       3.169374        86.2431 
 328   0.0000       3.178922        86.5029 
 329   0.0000       3.194260        86.9202 
 330   0.0000       3.196562        86.9829 
 331   0.0000       3.209524        87.3356 
 332   0.0000       3.217987        87.5659 
 333   0.0000       3.222828        87.6976 
 334   0.0000       3.237349        88.0928 
 335   0.0000       3.246090        88.3306 
 336   0.0000       3.249138        88.4135 
 337   0.0000       3.260680        88.7276 
 338   0.0000       3.269394        88.9647 
 339   0.0000       3.285042        89.3905 
 340   0.0000       3.290643        89.5430 
 341   0.0000       3.305691        89.9524 
 342   0.0000       3.320921        90.3669 
 343   0.0000       3.338697        90.8506 
 344   0.0000       3.345114        91.0252 
 345   0.0000       3.349292        91.1389 
 346   0.0000       3.358075        91.3779 
 347   0.0000       3.374120        91.8145 
 348   0.0000       3.388660        92.2101 
 349   0.0000       3.390746        92.2669 
 350   0.0000       3.397986        92.4639 
 351   0.0000       3.412826        92.8677 
 352   0.0000       3.425676        93.2174 
 353   0.0000       3.430778        93.3562 
 354   0.0000       3.435865        93.4946 
 355   0.0000       3.441743        93.6546 
 356   0.0000       3.450996        93.9064 
 357   0.0000       3.465708        94.3067 
 358   0.0000       3.472883        94.5020 
 359   0.0000       3.490354        94.9774 
 360   0.0000       3.507649        95.4480 
 361   0.0000       3.514857        95.6441 
 362   0.0000       3.530365        96.0661 
 363   0.0000       3.541536        96.3701 
 364   0.0000       3.560001        96.8726 
 365   0.0000       3.563622        96.9711 
 366   0.0000       3.575538        97.2953 
 367   0.0000       3.581888        97.4681 
 368   0.0000       3.592834        97.7660 
 369   0.0000       3.597760        97.9000 
 370   0.0000       3.609611        98.2225 
 371   0.0000       3.628016        98.7233 
 372   0.0000       3.635939        98.9389 
 373   0.0000       3.646421        99.2242 
 374   0.0000       3.668767        99.8322 
 375   0.0000       3.673629        99.9645 
 376   0.0000       3.682611       100.2089 
 377   0.0000       3.694436       100.5307 
 378   0.0000       3.718387       101.1825 
 379   0.0000       3.737787       101.7104 
 380   0.0000       3.754464       102.1642 
 381   0.0000       3.773078       102.6707 
 382   0.0000       3.779594       102.8480 
 383   0.0000       3.786333       103.0314 
 384   0.0000       3.802371       103.4678 
 385   0.0000       3.812453       103.7421 
 386   0.0000       3.819711       103.9396 
 387   0.0000       3.827413       104.1492 
 388   0.0000       3.849893       104.7609 
 389   0.0000       3.862109       105.0933 
 390   0.0000       3.876835       105.4941 
 391   0.0000       3.882653       105.6524 
 392   0.0000       3.897974       106.0693 
 393   0.0000       3.911521       106.4379 
 394   0.0000       3.913451       106.4904 
 395   0.0000       3.935913       107.1016 
 396   0.0000       3.949559       107.4730 
 397   0.0000       3.962542       107.8262 
 398   0.0000       3.968126       107.9782 
 399   0.0000       3.975952       108.1912 
 400   0.0000       3.991182       108.6056 
 401   0.0000       4.002785       108.9213 
 402   0.0000       4.015009       109.2539 
 403   0.0000       4.031754       109.7096 
 404   0.0000       4.042843       110.0114 
 405   0.0000       4.058683       110.4424 
 406   0.0000       4.066724       110.6612 
 407   0.0000       4.087831       111.2355 
 408   0.0000       4.104094       111.6781 
 409   0.0000       4.118767       112.0773 
 410   0.0000       4.131385       112.4207 
 411   0.0000       4.136538       112.5609 
 412   0.0000       4.147619       112.8624 
 413   0.0000       4.160677       113.2178 
 414   0.0000       4.170252       113.4783 
 415   0.0000       4.190676       114.0341 
 416   0.0000       4.198035       114.2343 
 417   0.0000       4.207649       114.4959 
 418   0.0000       4.215141       114.6998 
 419   0.0000       4.229166       115.0815 
 420   0.0000       4.241902       115.4280 
 421   0.0000       4.258232       115.8724 
 422   0.0000       4.277132       116.3867 
 423   0.0000       4.291632       116.7813 
 424   0.0000       4.306854       117.1954 
 425   0.0000       4.315483       117.4303 
 426   0.0000       4.323675       117.6532 
 427   0.0000       4.329380       117.8084 
 428   0.0000       4.358323       118.5960 
 429   0.0000       4.399535       119.7174 
 430   0.0000       4.416958       120.1915 
 431   0.0000       4.420921       120.2994 
 432   0.0000       4.462830       121.4398 
 433   0.0000       4.481016       121.9346 
 434   0.0000       4.510649       122.7410 
 435   0.0000       4.527711       123.2053 
 436   0.0000       4.550321       123.8205 
 437   0.0000       4.564711       124.2121 
 438   0.0000       4.583955       124.7358 
 439   0.0000       4.605467       125.3211 
 440   0.0000       4.607461       125.3754 
 441   0.0000       4.634757       126.1181 
 442   0.0000       4.638020       126.2069 
 443   0.0000       4.661922       126.8573 
 444   0.0000       4.673393       127.1695 
 445   0.0000       4.698666       127.8572 
 446   0.0000       4.709641       128.1558 
 447   0.0000       4.726921       128.6261 
 448   0.0000       4.739070       128.9567 
 449   0.0000       4.743640       129.0810 
 450   0.0000       4.764981       129.6617 
 451   0.0000       4.774133       129.9108 
 452   0.0000       4.807171       130.8098 
 453   0.0000       4.818064       131.1062 
 454   0.0000       4.837185       131.6265 
 455   0.0000       4.867136       132.4415 
 456   0.0000       4.872848       132.5969 
 457   0.0000       4.896183       133.2319 
 458   0.0000       4.911448       133.6473 
 459   0.0000       4.928036       134.0987 
 460   0.0000       4.940685       134.4429 
 461   0.0000       4.963891       135.0743 
 462   0.0000       4.989581       135.7734 
 463   0.0000       5.023887       136.7069 
 464   0.0000       5.029343       136.8554 
 465   0.0000       5.052717       137.4914 
 466   0.0000       5.062904       137.7686 
 467   0.0000       5.091618       138.5500 
 468   0.0000       5.097639       138.7138 
 469   0.0000       5.103014       138.8601 
 470   0.0000       5.117987       139.2675 
 471   0.0000       5.137234       139.7913 
 472   0.0000       5.140212       139.8723 
 473   0.0000       5.144450       139.9876 
 474   0.0000       5.162672       140.4834 
 475   0.0000       5.181037       140.9832 
 476   0.0000       5.192100       141.2842 
 477   0.0000       5.198660       141.4627 
 478   0.0000       5.213325       141.8618 
 479   0.0000       5.219174       142.0209 
 480   0.0000       5.242438       142.6540 
 481   0.0000       5.273298       143.4937 
 482   0.0000       5.294884       144.0811 
 483   0.0000       5.302174       144.2795 
 484   0.0000       5.312628       144.5640 
 485   0.0000       5.334292       145.1535 
 486   0.0000       5.350289       145.5888 
 487   0.0000       5.361916       145.9052 
 488   0.0000       5.378260       146.3499 
 489   0.0000       5.406258       147.1117 
 490   0.0000       5.450212       148.3078 
 491   0.0000       5.464598       148.6993 
 492   0.0000       5.466334       148.7465 
 493   0.0000       5.489939       149.3888 
 494   0.0000       5.497393       149.5917 
 495   0.0000       5.509106       149.9104 
 496   0.0000       5.523930       150.3138 
 497   0.0000       5.545314       150.8957 
 498   0.0000       5.554895       151.1564 
 499   0.0000       5.578964       151.8113 
 500   0.0000       5.590093       152.1142 
 501   0.0000       5.598785       152.3507 
 502   0.0000       5.619012       152.9011 
 503   0.0000       5.630206       153.2057 
 504   0.0000       5.639385       153.4555 
 505   0.0000       5.648105       153.6927 
 506   0.0000       5.679655       154.5513 
 507   0.0000       5.714627       155.5029 
 508   0.0000       5.758337       156.6923 
 509   0.0000       5.772519       157.0782 
 510   0.0000       5.800048       157.8273 
 511   0.0000       5.824284       158.4868 
 512   0.0000       5.883187       160.0896 
 513   0.0000       5.916686       161.0012 
 514   0.0000       5.951820       161.9572 
 515   0.0000       5.961476       162.2200 
 516   0.0000       5.967948       162.3961 
 517   0.0000       5.989003       162.9690 
 518   0.0000       6.040536       164.3713 
 519   0.0000       6.084122       165.5574 
 520   0.0000       6.135466       166.9545 
 521   0.0000       6.142535       167.1469 
 522   0.0000       6.154369       167.4689 
 523   0.0000       6.166140       167.7892 
 524   0.0000       6.285322       171.0323 
 525   0.0000       6.313552       171.8005 
 526   0.0000       6.347089       172.7131 
 527   0.0000       6.354301       172.9093 
 528   0.0000       6.380167       173.6132 
 529   0.0000       6.402082       174.2095 
 530   0.0000       6.405061       174.2906 
 531   0.0000       6.423533       174.7932 
 532   0.0000       6.437635       175.1770 
 533   0.0000       6.442278       175.3033 
 534   0.0000       6.471482       176.0980 
 535   0.0000       6.499216       176.8527 
 536   0.0000       6.519762       177.4117 
 537   0.0000       6.563309       178.5967 
 538   0.0000       6.571195       178.8113 
 539   0.0000       6.586395       179.2249 
 540   0.0000       6.652671       181.0284 
 541   0.0000       6.665183       181.3688 
 542   0.0000       6.711924       182.6407 
 543   0.0000       6.742773       183.4802 
 544   0.0000       6.803518       185.1331 
 545   0.0000       6.826857       185.7682 
 546   0.0000       6.848872       186.3673 
 547   0.0000       6.858297       186.6237 
 548   0.0000       6.936130       188.7417 
 549   0.0000       6.965328       189.5362 
 550   0.0000       7.047154       191.7628 
 551   0.0000       7.078624       192.6191 
 552   0.0000       7.112777       193.5485 
 553   0.0000       7.119444       193.7299 
 554   0.0000       7.243348       197.1015 
 555   0.0000       7.379359       200.8026 
 556   0.0000       7.455560       202.8761 
 557   0.0000       7.486414       203.7157 
 558   0.0000      23.131247       629.4332 
 559   0.0000      23.196622       631.2122 
 560   0.0000      23.231990       632.1746 
 561   0.0000      23.295669       633.9074 
 562   0.0000      23.309618       634.2870 
 563   0.0000      23.370048       635.9313 
 564   0.0000      32.729163       890.6058 
 565   0.0000      32.791285       892.2962 
 566   0.0000      32.894749       895.1116 
 567   0.0000      43.837650      1192.8831 
 568   0.0000      43.869518      1193.7503 
 569   0.0000      43.960506      1196.2262 
 570   0.0000      44.017220      1197.7694 

                    ********************************
                    * MULLIKEN POPULATION ANALYSIS *
                    ********************************

-----------------------
MULLIKEN ATOMIC CHARGES
-----------------------
   0 N :   -0.183382
   1 H :    0.195048
   2 C :   -0.061831
   3 C :    0.289402
   4 H :    0.130540
   5 H :    0.153625
   6 O :   -0.319299
   7 C :    0.354332
   8 C :   -0.076088
   9 O :   -0.474658
  10 N :   -0.188900
  11 H :    0.159476
  12 H :    0.146008
  13 H :    0.186453
  14 C :    0.208341
  15 C :   -0.141762
  16 O :   -0.327543
  17 H :    0.171411
  18 H :    0.146044
  19 O :   -0.260960
  20 H :    0.254249
  21 N :   -0.076538
  22 H :    0.233730
  23 H :    0.241297
  24 H :    0.241006
Sum of atomic charges:    1.0000000

--------------------------------
MULLIKEN REDUCED ORBITAL CHARGES
--------------------------------
  0 N s       :     3.420956  s :     3.420956
      pz      :     1.054315  p :     3.700820
      px      :     1.264002
      py      :     1.382503
      dz2     :     0.014728  d :     0.057707
      dxz     :     0.015542
      dyz     :     0.015096
      dx2y2   :     0.005140
      dxy     :     0.007201
      f0      :     0.000691  f :     0.003900
      f+1     :     0.000708
      f-1     :     0.000740
      f+2     :     0.000254
      f-2     :     0.000506
      f+3     :     0.000476
      f-3     :     0.000525
  1 H s       :     0.738719  s :     0.738719
      pz      :     0.014923  p :     0.060944
      px      :     0.021655
      py      :     0.024367
      dz2     :     0.000777  d :     0.005289
      dxz     :     0.000998
      dyz     :     0.000658
      dx2y2   :     0.001785
      dxy     :     0.001071
  2 C s       :     3.143510  s :     3.143510
      pz      :     0.745467  p :     2.803905
      px      :     1.066431
      py      :     0.992007
      dz2     :     0.020152  d :     0.106626
      dxz     :     0.026588
      dyz     :     0.028798
      dx2y2   :     0.015343
      dxy     :     0.015745
      f0      :     0.002113  f :     0.007791
      f+1     :     0.001707
      f-1     :     0.002002
      f+2     :     0.000192
      f-2     :     0.000574
      f+3     :     0.000736
      f-3     :     0.000466
  3 C s       :     3.068306  s :     3.068306
      pz      :     0.706496  p :     2.348251
      px      :     0.788448
      py      :     0.853306
      dz2     :     0.087533  d :     0.270217
      dxz     :     0.061589
      dyz     :     0.056287
      dx2y2   :     0.032012
      dxy     :     0.032796
      f0      :     0.004451  f :     0.023825
      f+1     :     0.004455
      f-1     :     0.006288
      f+2     :     0.002583
      f-2     :     0.002595
      f+3     :     0.001461
      f-3     :     0.001992
  4 H s       :     0.832056  s :     0.832056
      pz      :     0.008427  p :     0.035261
      px      :     0.017304
      py      :     0.009530
      dz2     :     0.000430  d :     0.002143
      dxz     :     0.000560
      dyz     :     0.000125
      dx2y2   :     0.000323
      dxy     :     0.000705
  5 H s       :     0.809854  s :     0.809854
      pz      :     0.008130  p :     0.034474
      px      :     0.010959
      py      :     0.015385
      dz2     :     0.000535  d :     0.002048
      dxz     :     0.000200
      dyz     :     0.000339
      dx2y2   :     0.000518
      dxy     :     0.000456
  6 O s       :     3.800412  s :     3.800412
      pz      :     1.558264  p :     4.485201
      px      :     1.447041
      py      :     1.479896
      dz2     :     0.006428  d :     0.031806
      dxz     :     0.006300
      dyz     :     0.008153
      dx2y2   :     0.006135
      dxy     :     0.004790
      f0      :     0.000259  f :     0.001880
      f+1     :     0.000187
      f-1     :     0.000402
      f+2     :     0.000437
      f-2     :     0.000361
      f+3     :     0.000089
      f-3     :     0.000145
  7 C s       :     3.104423  s :     3.104423
      pz      :     0.878248  p :     2.279875
      px      :     0.697233
      py      :     0.704394
      dz2     :     0.051075  d :     0.239912
      dxz     :     0.047835
      dyz     :     0.044362
[...]
     53       0.377567   0.001655   0.000139  -0.441976   0.004174   0.000130
     54       0.458168  -0.001076   0.000258   0.383312  -0.011492   0.006701
     55       0.600563  -0.001619   0.000343   0.514918  -0.009979   0.008553
     56       0.053288  -0.000182   0.000055   0.046974  -0.005408   0.002702
     57       0.000000   0.000010  -0.000022   0.000001   0.000014   0.000018
     58      -0.000001   0.000011  -0.000008   0.000001   0.000018   0.000017
     59       0.000014   0.000009   0.000002   0.000003   0.000040   0.000019
     60      -0.000039  -0.000012  -0.000781   0.000001  -0.000350  -0.000397
     61      -0.000062  -0.000005   0.000477  -0.000002  -0.000528  -0.000462
     62      -0.000005  -0.000056   0.000024  -0.000009   0.000050   0.000104
     63       0.002448  -0.000102   0.000185   0.000858   0.057958   0.002913
     64       0.000504   0.000023  -0.000078   0.001525   0.016596  -0.077059
     65      -0.001007   0.000089  -0.000148   0.000387   0.013169   0.021139
     66       0.001336  -0.000029   0.000129  -0.000493  -0.152864  -0.323370
     67      -0.008346   0.000226  -0.000376   0.001641   0.383799   0.767998
     68      -0.002213  -0.000075   0.000141  -0.001834  -0.164210  -0.330481
     69      -0.005449  -0.000048   0.000277  -0.012606  -0.627026   0.313954
     70      -0.004706  -0.000118   0.000268  -0.014418  -0.633732   0.299440
     71       0.001851   0.000034  -0.000060   0.006927  -0.044947   0.024945
     72      -0.028845   0.001752  -0.003093   0.007876  -0.021688  -0.024593
     73       0.010873  -0.000711   0.001176  -0.004630   0.013848  -0.002537
     74       0.024414  -0.001151   0.001923  -0.014760   0.027337   0.019701
                 72         73         74    
      0      -0.000431  -0.051205  -0.000025
      1       0.000363   0.042020  -0.000055
      2      -0.000380  -0.032140   0.000155
      3       0.006599   0.700725  -0.000742
      4      -0.005313  -0.557384   0.000936
      5       0.004105   0.438875  -0.000676
      6       0.000008  -0.000782  -0.000381
      7       0.000002  -0.000065  -0.000534
      8       0.000059   0.001262  -0.000065
      9      -0.000057  -0.000079   0.001186
     10      -0.000071  -0.000101   0.001763
     11      -0.000023  -0.000033  -0.001551
     12      -0.000016   0.006687   0.001385
     13       0.000056  -0.001647  -0.000618
     14       0.000045   0.006052   0.001631
     15       0.000119   0.003550  -0.000869
     16      -0.000096  -0.004497   0.001064
     17      -0.000151  -0.003731   0.001633
     18       0.000027   0.000002   0.000217
     19       0.000042   0.000015   0.000245
     20       0.000019   0.000088   0.000848
     21      -0.000142  -0.000274   0.000097
     22       0.000111  -0.000348  -0.000064
     23      -0.000102  -0.001438  -0.000099
     24       0.000929  -0.000201   0.000022
     25      -0.000032   0.000116  -0.000027
     26      -0.001058   0.000074  -0.000004
     27       0.000102   0.000928  -0.000060
     28      -0.000123  -0.000997   0.000032
     29      -0.000045   0.000211   0.000029
     30       0.032920  -0.000305  -0.000018
     31       0.065340  -0.000582   0.000041
     32      -0.001383  -0.000000   0.000021
     33      -0.002118   0.000475   0.000018
     34      -0.010412  -0.000015   0.000148
     35       0.000840   0.000231   0.000020
     36      -0.005615   0.002517  -0.000144
     37       0.000267  -0.001165   0.000051
     38       0.000716   0.000426  -0.000070
     39      -0.432852   0.004154  -0.000223
     40      -0.897445   0.008453  -0.000475
     41       0.039565  -0.000105  -0.000114
     42      -0.001215  -0.000034   0.000058
     43       0.001308  -0.000008   0.000003
     44      -0.000750   0.000046  -0.000009
     45       0.000316   0.000005  -0.000002
     46       0.000248  -0.000002  -0.000000
     47       0.000228   0.000019  -0.000005
     48      -0.000745   0.000029  -0.000020
     49      -0.000777   0.000013  -0.000005
     50      -0.000061  -0.000024   0.000006
     51      -0.001323   0.000011  -0.000017
     52       0.000129   0.000008   0.000002
     53      -0.000107   0.000047  -0.000018
     54      -0.005339   0.000034   0.000010
     55      -0.004727   0.000105  -0.000041
     56      -0.000766   0.000039  -0.000020
     57      -0.000008   0.000021   0.034791
     58      -0.000011   0.000065   0.048681
     59       0.000011   0.000052  -0.014066
     60       0.000292  -0.000729  -0.565254
     61       0.000396  -0.001150  -0.791196
     62      -0.000173   0.000264   0.225156
     63       0.000059   0.000375  -0.000102
     64       0.000299  -0.000212   0.000064
     65      -0.000040  -0.000111   0.000031
     66       0.000905  -0.000876   0.000245
     67      -0.002602   0.002097  -0.000610
     68       0.001192  -0.000959   0.000260
     69      -0.001548  -0.000972   0.000219
     70      -0.001904  -0.000770   0.000118
     71       0.000096  -0.000034   0.000007
     72       0.000435  -0.004318   0.001327
     73      -0.000344   0.002294  -0.000657
     74       0.000504   0.002701  -0.000766


-----------
IR SPECTRUM
-----------

 Mode   freq       eps      Int      T**2         TX        TY        TZ
       cm**-1   L/(mol*cm) km/mol    a.u.
----------------------------------------------------------------------------
  6:     29.92   0.001486    7.51  0.015493  (-0.099360  0.013643  0.073716)
  7:     43.31   0.000255    1.29  0.001838  ( 0.002014  0.001470  0.042805)
  8:     54.98   0.001020    5.15  0.005788  (-0.066233  0.002263 -0.037360)
  9:     73.64   0.000355    1.80  0.001506  ( 0.033900  0.017904  0.006042)
 10:     80.25   0.001497    7.57  0.005822  (-0.057708 -0.034967  0.035625)
 11:    128.57   0.006997   35.36  0.016982  ( 0.013295 -0.098628 -0.084127)
 12:    162.17   0.004670   23.60  0.008986  ( 0.067985  0.010600 -0.065207)
 13:    249.65   0.008379   42.35  0.010474  (-0.085429  0.055751 -0.008231)
 14:    263.99   0.001936    9.78  0.002289  (-0.036943 -0.030061  0.004501)
 15:    278.61   0.006926   35.00  0.007757  ( 0.047395 -0.027931  0.068781)
 16:    304.79   0.001405    7.10  0.001439  ( 0.000181 -0.021297  0.031388)
 17:    331.36   0.000605    3.06  0.000570  ( 0.010900 -0.015439 -0.014594)
 18:    349.16   0.000559    2.83  0.000500  ( 0.004747 -0.018504  0.011607)
 19:    407.55   0.009443   47.72  0.007230  ( 0.065928 -0.041331 -0.034286)
 20:    439.44   0.009070   45.84  0.006441  (-0.050328  0.022212  0.058435)
 21:    510.36   0.003153   15.93  0.001928  ( 0.043142 -0.004286 -0.006956)
 22:    523.27   0.011141   56.30  0.006645  ( 0.004102  0.075406 -0.030687)
 23:    544.10   0.003785   19.13  0.002171  ( 0.011060  0.036961  0.026126)
 24:    581.76   0.006948   35.11  0.003727  (-0.024058 -0.038764 -0.040565)
 25:    603.95   0.010583   53.48  0.005468  ( 0.009976 -0.040836  0.060835)
 26:    656.15   0.017947   90.70  0.008536  (-0.071811  0.053631  0.022417)
 27:    670.41   0.016081   81.27  0.007486  ( 0.054546  0.044226  0.050541)
 28:    706.83   0.005487   27.73  0.002423  (-0.018341  0.018784 -0.041633)
 29:    724.82   0.003491   17.64  0.001503  ( 0.035596 -0.008840  0.012563)
 30:    783.85   0.002199   11.11  0.000875  (-0.002480  0.002033  0.029413)
 31:    878.14   0.001984   10.03  0.000705  (-0.007703  0.021846 -0.012983)
 32:    879.76   0.004160   21.02  0.001476  (-0.018277  0.010394  0.032151)
 33:    904.79   0.000652    3.29  0.000225  (-0.011393  0.004530 -0.008633)
 34:    912.74   0.002626   13.27  0.000898  ( 0.014189  0.000943 -0.026373)
 35:    981.83   0.001155    5.84  0.000367  (-0.017616  0.003326 -0.006774)
 36:   1055.74   0.000700    3.54  0.000207  (-0.013693 -0.003811 -0.002196)
 37:   1059.94   0.004707   23.79  0.001386  (-0.028981  0.022552  0.006098)
 38:   1075.58   0.002988   15.10  0.000867  ( 0.027835  0.007194 -0.006354)
 39:   1115.73   0.001194    6.03  0.000334  ( 0.006570 -0.000361  0.017049)
 40:   1140.18   0.011725   59.25  0.003209  ( 0.033443 -0.043508 -0.014064)
 41:   1158.28   0.004350   21.98  0.001172  (-0.024031  0.003862  0.024074)
 42:   1191.04   0.056847  287.28  0.014895  ( 0.026717  0.022826 -0.116875)
 43:   1279.88   0.002484   12.55  0.000606  (-0.016413  0.014145  0.011673)
 44:   1282.09   0.000820    4.14  0.000200  (-0.006929 -0.004406  0.011495)
 45:   1300.04   0.012514   63.24  0.003004  ( 0.044538 -0.027151 -0.016824)
 46:   1315.21   0.008724   44.09  0.002070  ( 0.007107  0.002820 -0.044851)
 47:   1333.62   0.000528    2.67  0.000124  ( 0.000653 -0.005405  0.009692)
 48:   1335.72   0.005512   27.86  0.001288  (-0.027294 -0.000302  0.023297)
 49:   1399.62   0.004282   21.64  0.000955  ( 0.018453 -0.017881  0.017161)
 50:   1421.45   0.000508    2.57  0.000111  (-0.006752  0.005375 -0.006079)
 51:   1444.49   0.014126   71.39  0.003052  ( 0.026525  0.029072 -0.038767)
 52:   1467.16   0.006836   34.55  0.001454  (-0.026028  0.005243 -0.027369)
 53:   1474.67   0.002256   11.40  0.000477  ( 0.005709  0.016672 -0.012916)
 54:   1504.89   0.002506   12.67  0.000520  (-0.001892  0.019004  0.012449)
 55:   1541.09   0.027538  139.16  0.005576  (-0.054746  0.025476 -0.043932)
 56:   1572.36   0.038792  196.04  0.007699  (-0.086196  0.015832  0.004308)
 57:   1607.22   0.042115  212.83  0.008177  (-0.037474  0.030011  0.076630)
 58:   1625.09   0.018402   92.99  0.003534  (-0.015797  0.055868  0.012765)
 59:   1683.23   0.027934  141.17  0.005179  (-0.055356  0.045241  0.008231)
 60:   1734.13   0.054015  272.97  0.009720  (-0.070838  0.067495  0.012107)
 61:   1820.49   0.049520  250.25  0.008489  ( 0.077170  0.048129 -0.014732)
 62:   1862.82   0.058414  295.20  0.009786  (-0.029867 -0.048700 -0.080758)
 63:   3009.56   0.176308  890.99  0.018282  ( 0.105119 -0.062150 -0.058042)
 64:   3118.25   0.002566   12.97  0.000257  (-0.011570  0.003373  0.010560)
 65:   3123.76   0.000721    3.64  0.000072  (-0.003106 -0.000726  0.007864)
 66:   3132.76   0.000707    3.57  0.000070  (-0.008300 -0.000351  0.001202)
 67:   3173.01   0.000227    1.15  0.000022  ( 0.002388  0.003667 -0.001777)
 68:   3175.59   0.000044    0.22  0.000004  (-0.001113  0.001514  0.000902)
 69:   3203.62   0.000128    0.65  0.000012  ( 0.001116 -0.002348 -0.002386)
 70:   3476.70   0.017132   86.58  0.001538  (-0.038521 -0.003972 -0.006171)
 71:   3557.30   0.020422  103.21  0.001792  (-0.006288  0.040647 -0.009994)
 72:   3656.70   0.008760   44.27  0.000748  (-0.017838 -0.020568 -0.002526)
 73:   3667.02   0.013481   68.13  0.001147  ( 0.024647 -0.022576  0.005484)
 74:   3802.80   0.024535  123.99  0.002013  (-0.022577 -0.028980  0.025765)

* The epsilon (eps) is given for a Dirac delta lineshape.
** The dipole moment derivative (T) already includes vibrational overlap.

The first frequency considered to be a vibration is 6
The total number of vibrations considered is 69


--------------------------
THERMOCHEMISTRY AT 298.15K
--------------------------

Temperature         ... 298.15 K
Pressure            ... 1.00 atm
Total Mass          ... 190.18 AMU

Throughout the following assumptions are being made:
  (1) The electronic state is orbitally nondegenerate
  (2) There are no thermally accessible electronically excited states
  (3) Hindered rotations indicated by low frequency modes are not
      treated as such but are treated as vibrations and this may
      cause some error
  (4) All equations used are the standard statistical mechanics
      equations for an ideal gas
  (5) All vibrations are strictly harmonic

freq.      29.92  E(vib)   ...       0.55 
freq.      43.31  E(vib)   ...       0.53 
freq.      54.98  E(vib)   ...       0.52 
freq.      73.64  E(vib)   ...       0.49 
freq.      80.25  E(vib)   ...       0.49 
freq.     128.57  E(vib)   ...       0.43 
freq.     162.17  E(vib)   ...       0.39 
freq.     249.65  E(vib)   ...       0.31 
freq.     263.99  E(vib)   ...       0.29 
freq.     278.61  E(vib)   ...       0.28 
freq.     304.79  E(vib)   ...       0.26 
freq.     331.36  E(vib)   ...       0.24 
freq.     349.16  E(vib)   ...       0.23 
freq.     407.55  E(vib)   ...       0.19 
freq.     439.44  E(vib)   ...       0.17 
freq.     510.36  E(vib)   ...       0.14 
freq.     523.27  E(vib)   ...       0.13 
freq.     544.10  E(vib)   ...       0.12 
freq.     581.76  E(vib)   ...       0.11 
freq.     603.95  E(vib)   ...       0.10 
freq.     656.15  E(vib)   ...       0.08 
freq.     670.41  E(vib)   ...       0.08 
freq.     706.83  E(vib)   ...       0.07 
freq.     724.82  E(vib)   ...       0.06 
freq.     783.85  E(vib)   ...       0.05 
freq.     878.14  E(vib)   ...       0.04 
freq.     879.76  E(vib)   ...       0.04 
freq.     904.79  E(vib)   ...       0.03 
freq.     912.74  E(vib)   ...       0.03 
freq.     981.83  E(vib)   ...       0.02 
freq.    1055.74  E(vib)   ...       0.02 
freq.    1059.94  E(vib)   ...       0.02 
freq.    1075.58  E(vib)   ...       0.02 
freq.    1115.73  E(vib)   ...       0.01 
freq.    1140.18  E(vib)   ...       0.01 
freq.    1158.28  E(vib)   ...       0.01 
freq.    1191.04  E(vib)   ...       0.01 
freq.    1279.88  E(vib)   ...       0.01 
freq.    1282.09  E(vib)   ...       0.01 
freq.    1300.04  E(vib)   ...       0.01 
freq.    1315.21  E(vib)   ...       0.01 
freq.    1333.62  E(vib)   ...       0.01 
freq.    1335.72  E(vib)   ...       0.01 
freq.    1399.62  E(vib)   ...       0.00 
freq.    1421.45  E(vib)   ...       0.00 
freq.    1444.49  E(vib)   ...       0.00 
freq.    1467.16  E(vib)   ...       0.00 
freq.    1474.67  E(vib)   ...       0.00 
freq.    1504.89  E(vib)   ...       0.00 
freq.    1541.09  E(vib)   ...       0.00 
freq.    1572.36  E(vib)   ...       0.00 
freq.    1607.22  E(vib)   ...       0.00 
freq.    1625.09  E(vib)   ...       0.00 
freq.    1683.23  E(vib)   ...       0.00 
freq.    1734.13  E(vib)   ...       0.00 
freq.    1820.49  E(vib)   ...       0.00 
freq.    1862.82  E(vib)   ...       0.00 
freq.    3009.56  E(vib)   ...       0.00 
freq.    3118.25  E(vib)   ...       0.00 
freq.    3123.76  E(vib)   ...       0.00 
freq.    3132.76  E(vib)   ...       0.00 
freq.    3173.01  E(vib)   ...       0.00 
freq.    3175.59  E(vib)   ...       0.00 
freq.    3203.62  E(vib)   ...       0.00 
freq.    3476.70  E(vib)   ...       0.00 
freq.    3557.30  E(vib)   ...       0.00 
freq.    3656.70  E(vib)   ...       0.00 
freq.    3667.02  E(vib)   ...       0.00 
freq.    3802.80  E(vib)   ...       0.00 

------------
INNER ENERGY
------------

The inner energy is: U= E(el) + E(ZPE) + E(vib) + E(rot) + E(trans)
    E(el)   - is the total energy from the electronic structure calculation
              = E(kin-el) + E(nuc-el) + E(el-el) + E(nuc-nuc)
    E(ZPE)  - the the zero temperature vibrational energy from the frequency calculation
    E(vib)  - the the finite temperature correction to E(ZPE) due to population
              of excited vibrational states
    E(rot)  - is the rotational thermal energy
    E(trans)- is the translational thermal energy

Summary of contributions to the inner energy U:
Electronic energy                ...   -701.34857533 Eh
Zero point energy                ...      0.20949809 Eh     131.46 kcal/mol
Thermal vibrational correction   ...      0.01059983 Eh       6.65 kcal/mol
Thermal rotational correction    ...      0.00141627 Eh       0.89 kcal/mol
Thermal translational correction ...      0.00141627 Eh       0.89 kcal/mol
-----------------------------------------------------------------------
Total thermal energy                   -701.12564487 Eh


Summary of corrections to the electronic energy:
(perhaps to be used in another calculation)
Total thermal correction                  0.01343237 Eh       8.43 kcal/mol
Non-thermal (ZPE) correction              0.20949809 Eh     131.46 kcal/mol
-----------------------------------------------------------------------
Total correction                          0.22293046 Eh     139.89 kcal/mol


--------
ENTHALPY
--------

The enthalpy is H = U + kB*T
                kB is Boltzmann's constant
Total free energy                 ...   -701.12564487 Eh 
Thermal Enthalpy correction       ...      0.00094421 Eh       0.59 kcal/mol
-----------------------------------------------------------------------
Total Enthalpy                    ...   -701.12470066 Eh


Note: Only C1 symmetry has been detected, increase convergence thresholds 
      if your molecule has a higher symmetry. Symmetry factor of 1.0 is   
      used for the rotational entropy correction. 
 

Note: Rotational entropy computed according to Herzberg 
Infrared and Raman Spectra, Chapter V,1, Van Nostrand Reinhold, 1945 
Point Group:  C1, Symmetry Number:   1  
Rotational constants in cm-1:     0.053402     0.013286     0.012228 

Vibrational entropy computed according to the QRRHO of S. Grimme
Chem.Eur.J. 2012 18 9955


-------
ENTROPY
-------

The entropy contributions are T*S = T*(S(el)+S(vib)+S(rot)+S(trans))
     S(el)   - electronic entropy
     S(vib)  - vibrational entropy
     S(rot)  - rotational entropy
     S(trans)- translational entropy
The entropies will be listed as multiplied by the temperature to get
units of energy

Electronic entropy                ...      0.00000000 Eh      0.00 kcal/mol
Vibrational entropy               ...      0.01878320 Eh     11.79 kcal/mol
Rotational entropy                ...      0.01501301 Eh      9.42 kcal/mol
Translational entropy             ...      0.01978162 Eh     12.41 kcal/mol
-----------------------------------------------------------------------
Final entropy term                ...      0.05357782 Eh     33.62 kcal/mol

In case the symmetry of your molecule has not been determined correctly
or in case you have a reason to use a different symmetry number we print 
out the resulting rotational entropy values for sn=1,12 :
 --------------------------------------------------------
|  sn= 1 | S(rot)=       0.01501301 Eh      9.42 kcal/mol|
|  sn= 2 | S(rot)=       0.01435855 Eh      9.01 kcal/mol|
|  sn= 3 | S(rot)=       0.01397572 Eh      8.77 kcal/mol|
|  sn= 4 | S(rot)=       0.01370410 Eh      8.60 kcal/mol|
|  sn= 5 | S(rot)=       0.01349341 Eh      8.47 kcal/mol|
|  sn= 6 | S(rot)=       0.01332126 Eh      8.36 kcal/mol|
|  sn= 7 | S(rot)=       0.01317572 Eh      8.27 kcal/mol|
|  sn= 8 | S(rot)=       0.01304964 Eh      8.19 kcal/mol|
|  sn= 9 | S(rot)=       0.01293843 Eh      8.12 kcal/mol|
|  sn=10 | S(rot)=       0.01283895 Eh      8.06 kcal/mol|
|  sn=11 | S(rot)=       0.01274896 Eh      8.00 kcal/mol|
|  sn=12 | S(rot)=       0.01266681 Eh      7.95 kcal/mol|
 --------------------------------------------------------


-------------------
GIBBS FREE ENERGY
-------------------

The Gibbs free energy is G = H - T*S

Total enthalpy                    ...   -701.12470066 Eh 
Total entropy correction          ...     -0.05357782 Eh    -33.62 kcal/mol
-----------------------------------------------------------------------
Final Gibbs free energy         ...   -701.17827848 Eh

For completeness - the Gibbs free energy minus the electronic energy
G-E(el)                           ...      0.17029685 Eh    106.86 kcal/mol


Timings for individual modules:

Sum of individual times         ...     7841.506 sec (= 130.692 min)
GTO integral calculation        ...       27.743 sec (=   0.462 min)   0.4 %
SCF iterations                  ...     2472.823 sec (=  41.214 min)  31.5 %
SCF Gradient evaluation         ...      516.268 sec (=   8.604 min)   6.6 %
Geometry relaxation             ...        1.042 sec (=   0.017 min)   0.0 %
Analytical frequency calculation...     4313.074 sec (=  71.885 min)  55.0 %
CHELPG charge generation        ...      510.556 sec (=   8.509 min)   6.5 %
                             ****ORCA TERMINATED NORMALLY****
TOTAL RUN TIME: 0 days 2 hours 11 minutes 9 seconds 51 msec
